LAMMPS (29 Sep 2011)
units		metal
boundary	p p p

atom_style	atomic

read_data	Zr54Cu38Al8_1234atoms_post_md.dat
  orthogonal box = (-14.1421 -14.1421 -14.1421) to (14.1421 14.1421 14.1421)
  1 by 1 by 1 processor grid
  1234 atoms

#mass 		1  91.22
#mass		2  63.55
#mass		3  26.98

pair_style	eam/alloy
pair_coeff	* * ZrCuAl2011.eam.alloy Zr Cu Al

thermo_style	custom step etotal fmax fnorm
thermo		1

minimize	1.0e-6 0 1000 10000
WARNING: Resetting reneighboring criteria during minimization (min.cpp:160)
Memory usage per processor = 2.80072 Mbytes
Step TotEng Fmax Fnorm 
       0   -5122.5773    9.4233691    109.14854 
       1   -5236.4324      7.19835    88.893683 
       2   -5335.7244    5.5438342    73.145514 
       3   -5423.5785    4.3702018    60.997972 
       4   -5501.6415     3.478706    51.583491 
       5   -5572.1256    2.8197992    44.040449 
       6   -5635.7452    2.4396694     37.87628 
       7   -5690.5298    2.3732964    33.036378 
       8   -5733.9207    2.3042658    29.515306 
       9   -5769.8812    2.2179274    26.778504 
      10   -5800.7976    2.0691018    24.547605 
      11   -5828.7236     1.841757    22.626371 
      12   -5855.3839    1.5430202    20.869012 
      13    -5882.385    1.3809038    19.163024 
      14    -5907.847    1.3215233    17.630094 
      15   -5930.4536    1.1658449     16.34234 
      16   -5952.4723    1.0509533    15.162128 
      17   -5973.5357    1.0848355    14.123333 
      18   -5991.3646     1.080274    13.319927 
      19   -6007.3283    1.1080063    12.608258 
      20   -6021.2907    1.1600297    11.955469 
      21   -6033.2912    1.1390196    11.350549 
      22   -6044.2931   0.99979374    10.751955 
      23   -6055.4992   0.71570004     10.12577 
      24   -6069.2454   0.67969937    9.3903327 
      25   -6081.7662   0.63388832    8.8123405 
      26   -6093.6325   0.60183915    8.3692612 
      27    -6104.835   0.65135432    8.1052178 
      28   -6114.1187     1.113705    8.3887773 
      29   -6120.8522   0.77563468     7.698845 
      30   -6128.6728   0.70303356     7.252654 
      31   -6135.4246    0.9685135    7.1759654 
      32   -6140.8481   0.93448573    6.6145915 
      33   -6145.2649    1.0094476    6.2501916 
      34   -6149.0238    1.0325194    6.0980019 
      35   -6152.5243   0.98584498    5.9636641 
      36   -6156.0227   0.87029329    5.8321767 
      37   -6159.7765   0.70558098    5.7260883 
      38   -6164.0663   0.69196551    5.7816077 
      39   -6169.0487    1.5907104    6.6346513 
      40   -6173.7516   0.79378028    5.2512459 
      41   -6178.7935    1.1582622    5.3977539 
      42   -6182.1388    1.2219112     5.235229 
      43   -6185.8449   0.66834937    4.8632282 
      44   -6190.4096    1.6512793    5.4811394 
      45   -6193.2222   0.39048801     4.483237 
      46    -6198.638    1.2230872     4.739468 
      47    -6200.693   0.66339806    4.4688431 
      48   -6205.0339    1.7155299     5.062496 
      49    -6207.318   0.40612953     4.011963 
      50   -6211.1365   0.66156081    3.9598075 
      51    -6213.398    1.0406702    4.2797425 
      52   -6215.8985    1.3327141    4.2984169 
      53   -6218.5481   0.49051959    3.6038728 
      54   -6221.1043   0.66916311    3.6868065 
      55    -6223.281    1.0578201    4.1206142 
      56   -6225.5785   0.58469013    3.5352338 
      57   -6227.8603    0.4435931    3.4575848 
      58    -6230.284     1.007643    4.1293298 
      59   -6232.8143   0.60566984    3.5313353 
      60   -6235.1419   0.33621312    3.0598174 
      61   -6237.4702   0.88151074     3.680238 
      62   -6239.6759    1.2893539    4.2063049 
      63   -6242.1393   0.68044772    3.1554801 
      64   -6243.0624    1.0877908    3.9676905 
      65   -6245.0145    0.4677149    2.9387584 
      66   -6246.1327    1.4928676    4.6413508 
      67   -6248.1828   0.93329803    3.3537789 
      68   -6248.9118   0.62707111    3.0698297 
      69   -6251.0567   0.60889922     2.934224 
      70    -6252.719    1.0765456    3.4362242 
      71   -6254.6337   0.46933207    2.6284328 
      72   -6255.5721   0.72307886    3.2492226 
      73    -6257.234   0.64388112    3.1407128 
      74   -6258.0663   0.53074364    2.7411663 
      75   -6259.2973   0.83990058    3.5687094 
      76    -6260.709   0.39401849    2.1819203 
      77   -6261.7243    1.2400441    5.0130119 
      78   -6262.6523    1.1363185    6.0387086 
      79   -6264.5349   0.63934167    3.3393379 
      80    -6265.304   0.49442219    2.1469934 
      81   -6265.9224   0.65030967    3.0423667 
      82   -6267.1297    0.7034511    2.9188845 
      83   -6267.7531    1.0565261    3.1194187 
      84   -6268.4566    1.1260102      4.00148 
      85     -6269.48   0.34261608    2.0142051 
      86   -6270.2415    1.0870772    4.0003036 
      87   -6271.1019    1.0988716    4.3547369 
      88   -6272.1003    0.4918814    2.2571186 
      89   -6272.6701   0.63886147    3.0999306 
      90   -6273.3306   0.66309796    3.3450964 
      91   -6274.1205   0.65707861    2.8529711 
      92   -6274.6927   0.58828854    3.7933219 
      93   -6275.6944   0.71782154    3.3599167 
      94   -6276.4447   0.72103272      2.91416 
      95   -6276.8355   0.43701246     3.170195 
      96   -6277.7334    0.4733607    2.5868483 
      97   -6278.2442   0.38914898    1.7562983 
      98   -6278.7835    0.6389428     2.238491 
      99   -6279.4303   0.22124476    1.9246869 
     100   -6279.8664   0.51511448    2.1262974 
     101   -6280.3441   0.28401518    2.1629756 
     102    -6281.546   0.21732909    1.7508975 
     103   -6282.3403    0.6690911    3.2736996 
     104   -6283.1183   0.68577338      3.61221 
     105   -6283.8076   0.22763716    1.7485065 
     106   -6284.1793   0.44985196    2.0707351 
     107   -6284.7994   0.41189118    2.1455241 
     108   -6285.5719   0.29478865    1.7789527 
     109   -6286.2343   0.80493266    2.5615928 
     110   -6286.8599   0.25487896     2.220788 
     111    -6287.162   0.28215291    1.5438578 
     112   -6287.4499   0.74949886    2.2247296 
     113   -6287.8159    0.2179533    2.5784755 
     114   -6288.6217   0.60038491    2.8372732 
     115   -6289.1409   0.16981748    1.3342816 
     116   -6289.3049   0.29129359    1.5098469 
     117   -6289.5816    0.3126792     1.976228 
     118   -6290.1266   0.42146867     2.276446 
     119   -6290.6883   0.61022931    2.3398808 
     120   -6291.1533   0.25840288    2.0141314 
     121   -6291.5347   0.32608283    1.9026833 
     122    -6291.839   0.18113498    1.5608224 
     123   -6292.1169   0.30556743    1.6852129 
     124   -6292.3609   0.22494386    1.6936496 
     125   -6292.6516   0.33972807    1.7989984 
     126   -6292.8759   0.29780952    2.0466771 
     127   -6293.2532   0.24821024    1.3671264 
     128   -6293.4385   0.10984321   0.92865338 
     129   -6293.5747   0.14634996   0.94495626 
     130   -6293.8662   0.63556506    2.2108089 
     131   -6294.1512   0.38561485    2.2783891 
     132   -6294.3865   0.22554164    1.1154592 
     133   -6294.4784   0.26775163   0.98507959 
     134   -6294.5948   0.69507034    1.7503538 
     135   -6294.7293   0.60751852    2.0371301 
     136   -6294.9006   0.43123797    1.5042089 
     137   -6295.1434   0.18220084    1.1975995 
     138   -6295.3563   0.19341131    1.1485605 
     139   -6295.4971   0.17366766    0.9291017 
     140   -6295.7002   0.33533069    1.3727487 
     141   -6296.0084   0.32639591    1.5789572 
     142   -6296.3107   0.21427186    1.5101069 
     143   -6296.5625   0.22331549     1.239071 
     144   -6296.7061   0.22181803   0.97692826 
     145   -6296.8636   0.25333672    1.1762165 
     146   -6297.0242   0.36945093    1.6413661 
     147   -6297.1697   0.21064831    1.5024407 
     148   -6297.3957   0.35657006     1.312983 
     149   -6297.5518   0.39556749    1.2644314 
     150   -6297.7182   0.19256475   0.97203923 
     151   -6297.8112    0.2538533   0.97505611 
     152    -6297.964   0.59076728     1.429236 
     153   -6298.0743   0.32034015    1.2866356 
     154   -6298.1595   0.16669881   0.89866631 
     155   -6298.2619   0.31252403   0.91619166 
     156   -6298.3291    0.1679315   0.77697561 
     157   -6298.5467   0.34841093    1.1761554 
     158   -6298.7705   0.40428157    1.3743488 
     159   -6299.0041   0.24296955    1.1579703 
     160   -6299.0672   0.31850669    1.0366694 
     161   -6299.1673     0.292984    1.1354197 
     162   -6299.2574   0.23761455   0.96733448 
     163   -6299.3577   0.23273624    1.0632959 
     164   -6299.4434   0.22108845    1.0981098 
     165    -6299.634   0.58743261    2.1572051 
     166   -6299.8142   0.39168972    2.0968564 
     167   -6300.0475    0.4041197    1.6313435 
     168   -6300.1535      0.35289    1.3145842 
     169    -6300.238   0.12660033   0.67566877 
     170   -6300.2929   0.10939111    0.7685265 
     171   -6300.4019   0.20564901   0.94111735 
     172   -6300.6019   0.26254439   0.95156047 
     173   -6300.7797   0.15161672   0.91017999 
     174   -6300.9413   0.19435316    1.2994899 
     175   -6301.0047   0.22840151    1.2887833 
     176    -6301.095   0.17548226   0.97197216 
     177   -6301.1846   0.19421085      1.01708 
     178   -6301.2734   0.12985608    0.7369293 
     179   -6301.3181  0.081731072   0.60924105 
     180   -6301.3927  0.097752724   0.61598992 
     181   -6301.4768   0.36705756    1.3946507 
     182   -6301.5351   0.38456242    1.6921448 
     183   -6301.6605   0.15789867   0.87335918 
     184   -6301.7397   0.11820689   0.66428564 
     185   -6301.8018   0.22327777   0.71581362 
     186    -6301.859  0.076873473   0.54562475 
     187   -6301.9582   0.16720498   0.87401057 
     188   -6302.1635   0.26086773   0.99906218 
     189   -6302.3546   0.21170407    1.0213207 
     190    -6302.561   0.19060323    1.0173976 
     191   -6302.7769   0.26244418     1.645885 
     192   -6303.0013   0.19347528    1.6186971 
     193   -6303.1884    0.2042585    1.3434517 
     194   -6303.4162    0.3104027    1.5224566 
     195   -6303.6451   0.21191918    1.1595169 
     196   -6303.8193   0.51303553    1.5526261 
     197   -6304.0062   0.26417712    1.8886801 
     198   -6304.2927    0.3187687    2.1281827 
     199   -6304.6131   0.31780198    1.6509447 
     200   -6304.8157   0.61796521    1.6869436 
     201   -6304.9642    0.2397547    1.6536446 
     202   -6305.2103   0.20451239    1.4081321 
     203   -6305.4199   0.21281122    1.0875787 
     204   -6305.5794   0.45035506    1.1548273 
     205   -6305.7963   0.62637869    1.6554209 
     206   -6306.0482   0.40139198    1.4514166 
     207   -6306.1672   0.56966085    1.2244236 
     208   -6306.2539   0.11201472   0.91643907 
     209   -6306.3316    0.2754496    1.0168611 
     210   -6306.4528   0.29593544    1.3018868 
     211   -6306.6899   0.48922079    1.9042402 
     212   -6306.8077   0.41514077    2.2004945 
     213   -6307.0063   0.10870548    1.1041024 
     214   -6307.0903   0.14161111   0.62367372 
     215   -6307.1451   0.34767412   0.73683863 
     216   -6307.2248   0.66249391    1.1421685 
     217   -6307.2981    0.6233833    1.3351616 
     218   -6307.3683   0.33110794   0.95181339 
     219   -6307.5171   0.11827668   0.83828534 
     220   -6307.6002  0.079760708   0.62436091 
     221   -6307.6611   0.11285784   0.61441807 
     222   -6307.7418    0.2515177   0.82041217 
     223   -6307.8469   0.16587007   0.94173913 
     224   -6307.9755   0.19303546   0.88385835 
     225   -6308.1098   0.23516312    1.0925245 
     226   -6308.2451     0.165846   0.80770898 
     227   -6308.2972   0.18360597   0.77752768 
     228   -6308.3811   0.21837021    1.1118325 
     229   -6308.4662   0.19483882      1.06524 
     230   -6308.5579   0.29587844    1.1553863 
     231    -6308.616   0.13344693   0.88699265 
     232   -6308.6605   0.13773859   0.55880186 
     233   -6308.7134    0.2207993   0.93522734 
     234   -6308.8067   0.13071595   0.99289641 
     235   -6308.9906  0.095335216   0.81662573 
     236   -6309.0618  0.093208834   0.60695282 
     237   -6309.1623    0.2129273     1.083426 
     238   -6309.3537   0.12770135      1.43644 
     239   -6309.5745   0.17752825   0.99420314 
     240   -6309.6901   0.19422184    0.9148244 
     241   -6309.8295   0.11898577   0.89097423 
     242   -6310.0587   0.24341231    1.7967068 
     243    -6310.304   0.18275844    1.6748141 
     244   -6310.4732   0.10865861   0.90463583 
     245   -6310.5594    0.1262621   0.80895685 
     246   -6310.7254   0.25189306    1.6022644 
     247   -6310.8887   0.17103871    1.5272889 
     248   -6311.0688   0.17372131    1.1850549 
     249   -6311.1829   0.10901462   0.83617828 
     250   -6311.2958   0.14160307    1.0611266 
     251   -6311.4308   0.14353794   0.96686528 
     252   -6311.5649   0.26141025   0.90527394 
     253   -6311.7147   0.86359373    1.6796126 
     254   -6311.8067   0.61836672    1.8130557 
     255   -6311.9472   0.42089679    1.1918085 
     256   -6312.0724   0.19781665   0.74893667 
     257   -6312.1255    0.3354329   0.81535273 
     258   -6312.2181   0.38883486   0.94978623 
     259   -6312.3306   0.64133371    1.5784767 
     260   -6312.4586   0.46710985    1.6376773 
     261   -6312.6155   0.65579746    1.3934209 
     262   -6312.7802   0.42304863    1.1125051 
     263   -6312.8576  0.091667208   0.58989173 
     264    -6312.913   0.11064205   0.76026544 
     265   -6313.0035   0.18433307   0.67550367 
     266   -6313.0812   0.38011039   0.81601295 
     267   -6313.2233     0.479464    1.0272084 
     268   -6313.3581   0.24698574   0.86389598 
     269   -6313.4823   0.49254686    1.3400121 
     270   -6313.5927   0.24298444    1.1728012 
     271   -6313.7023    0.2497455   0.92378722 
     272   -6313.7827   0.29012796   0.80896695 
     273   -6313.8942   0.68490486    1.1843962 
     274   -6313.9828    0.1829245   0.85899983 
     275   -6314.0261   0.35031884   0.88203875 
     276   -6314.0617   0.18722238   0.71690718 
     277   -6314.0845  0.052575888   0.41747138 
     278   -6314.1136   0.20730966     0.598265 
     279   -6314.1868   0.70381054    1.3032387 
     280    -6314.326   0.68181575    1.6881273 
     281    -6314.452   0.48444007    1.0264474 
     282   -6314.5793   0.67648773    1.6202313 
     283   -6314.7011   0.35085146    1.4365273 
     284   -6314.8575   0.59651639    1.2849025 
     285   -6314.9655   0.50588838    1.0706242 
     286   -6315.0684   0.16254288    1.3225217 
     287   -6315.2366   0.42589676    1.3563992 
     288   -6315.3769   0.39153721   0.90209404 
     289   -6315.4663   0.53214003   0.96997933 
     290   -6315.5544   0.26989646    1.2942797 
     291   -6315.6913   0.30410675    1.3059744 
     292   -6315.8543   0.85381457    1.3593272 
     293   -6315.9482   0.23444914   0.87159608 
     294   -6316.1108   0.36364642    1.3607693 
     295   -6316.3079   0.29980058    1.1545185 
     296   -6316.4989   0.55328635    1.2115409 
     297   -6316.6676   0.48657876    1.1699445 
     298   -6316.8052   0.26976602    1.1131187 
     299   -6316.9416   0.26925708    1.0001096 
     300   -6317.0349   0.25175633   0.80950502 
     301   -6317.1231   0.74700071    1.2584273 
     302      -6317.2   0.41164442     1.065793 
     303   -6317.2429   0.12637272    0.6047369 
     304   -6317.2885   0.41427021    0.7864113 
     305   -6317.3342   0.51345809    1.0366762 
     306   -6317.4172   0.31989833    1.1982851 
     307   -6317.5376   0.63570636    1.1796789 
     308   -6317.6531   0.35725277   0.75531492 
     309   -6317.7224   0.17627158   0.64358517 
     310   -6317.8118    0.3933452    1.1235332 
     311   -6317.8739   0.13417866   0.94494798 
     312   -6317.9435   0.38250816    0.9745305 
     313    -6317.978   0.14768554   0.61496367 
     314    -6317.997  0.099295626   0.38957308 
     315   -6318.0176   0.21429921   0.57820473 
     316   -6318.0476  0.074232598   0.52252572 
     317   -6318.0737    0.1213203    0.3673001 
     318   -6318.0861   0.12133952   0.34853341 
     319   -6318.1269   0.18668254   0.62399667 
     320   -6318.1825   0.35639772   0.87595541 
     321   -6318.2188   0.19617719   0.83975925 
     322   -6318.2729   0.23128484   0.75041511 
     323   -6318.3165   0.13274431   0.50146795 
     324    -6318.349   0.22524935    0.5804034 
     325   -6318.3681  0.060030842   0.41779811 
     326   -6318.3905   0.22927068    0.5293783 
     327    -6318.414   0.20796565   0.50461459 
     328   -6318.4421   0.11572873   0.60418737 
     329   -6318.4656   0.11730847   0.60216234 
     330   -6318.4985   0.21086149   0.59004234 
     331   -6318.5332  0.071318956   0.43161759 
     332   -6318.5595    0.1397077   0.45911487 
     333   -6318.5954   0.25125922   0.65309268 
     334   -6318.6741    0.3548793   0.81789674 
     335   -6318.7534   0.14711506    0.7769201 
     336   -6318.8251   0.18167137   0.60971751 
     337   -6318.8794   0.50045218    0.8474647 
     338    -6318.944    0.1463672   0.72408751 
     339   -6318.9725   0.12819839   0.60036405 
     340   -6319.0061   0.41640146   0.79337212 
     341   -6319.0344   0.13092246   0.46569318 
     342    -6319.044   0.14559277   0.35223396 
     343   -6319.0528  0.046274692   0.32889217 
     344   -6319.0679  0.080434724   0.43627718 
     345   -6319.0857  0.082059004   0.46191273 
     346   -6319.1049   0.12646517   0.47752618 
     347   -6319.1147   0.11594081   0.58241154 
     348   -6319.1371      0.13515   0.48291162 
     349   -6319.1439  0.072650167   0.44197452 
     350   -6319.1523  0.027866785   0.19618087 
     351   -6319.1554  0.038976817   0.17034365 
Loop time of 5.00444 on 1 procs for 351 steps with 1234 atoms

Minimization stats:
  Stopping criterion = energy tolerance
  Energy initial, next-to-last, final = 
        -5122.57727985     -6319.15234278     -6319.15539642
  Force two-norm initial, final = 109.149 0.170344
  Force max component initial, final = 9.42337 0.0389768
  Final line search alpha, max atom move = 0.125 0.0048721
  Iterations, force evaluations = 351 614

Pair  time (%) = 4.81539 (96.2224)
Neigh time (%) = 0.10326 (2.06337)
Comm  time (%) = 0.0342102 (0.683597)
Outpt time (%) = 0.0125601 (0.25098)
Other time (%) = 0.0390172 (0.779652)

Nlocal:    1234 ave 1234 max 1234 min
Histogram: 1 0 0 0 0 0 0 0 0 0
Nghost:    3851 ave 3851 max 3851 min
Histogram: 1 0 0 0 0 0 0 0 0 0
Neighs:    86902 ave 86902 max 86902 min
Histogram: 1 0 0 0 0 0 0 0 0 0

Total # of neighbors = 86902
Ave neighs/atom = 70.423
Neighbor list builds = 18
Dangerous builds = 0

write_restart	lmp_emin_exp.restart
