Zr54Cu38Al8 1000atoms post md

    1000 atoms
    3 atom types
-12.2905 12.2905 xlo xhi
-12.2905 12.2905 ylo yhi
-12.2905 12.2905 zlo zhi

Atoms

1 1 -7.85141663828 -12.2533720495 -8.91074449052
2 1 2.0604504537 3.11798083141 1.68112789025
3 1 -9.79318865536 2.59901764053 4.23710293825
4 1 -11.5524697084 5.6370710275 -5.9469427837
5 1 -0.582891059076 -2.98388848094 -10.4555242332
6 1 -4.77536319078 -7.88906983413 9.08211109774
7 1 3.69292592564 7.03237330026 -0.197303832602
8 1 -2.68985855866 2.80657508287 3.64720605766
9 1 -2.76318804953 10.4188772372 -12.1743694572
10 1 -0.208247515684 6.32396703831 -3.68148685938
11 1 -5.89903379118 -11.1915255725 -12.0503949879
12 1 -10.2552762785 -9.00443700195 9.93959136939
13 1 -6.4406698631 -5.22270705267 -10.2807863837
14 1 0.317928102562 -5.76739996014 8.71647977824
15 1 11.3470359231 -7.03712132593 -11.2842112587
16 1 7.60344503976 -9.55191892899 4.42146896851
17 1 9.58992094043 4.01122762315 2.85954751791
18 1 8.73608808484 -1.33031813814 4.98522778665
19 1 6.75113135957 5.28411470883 10.695425241
20 1 -7.80375718604 7.81519752388 -9.52940123653
21 1 -7.21179252877 -9.80280861335 -0.925507908775
22 1 4.99841642366 -6.42123949835 -1.39233950493
23 1 -9.73418103612 8.85497754137 11.6496778501
24 1 10.4125658904 -5.52355280399 -7.26280870319
25 1 -4.64241917235 8.94612422408 9.54569189793
26 1 -2.14832736098 -3.7660752988 3.54872222759
27 1 0.658223463916 -1.88474448504 1.88188404932
28 1 4.46886473057 9.95291854233 0.801834548781
29 1 5.24224370878 12.1501673396 1.63837925873
30 1 5.42473773599 -4.46276257511 -2.89764140386
31 1 0.388864082202 4.95254216654 8.71158820004
32 1 -11.2829513727 2.82106401859 11.5359910406
33 1 -3.55188963262 6.75807847414 2.89072086401
34 1 1.26953142496 9.94949471456 -6.732540392
35 1 -12.0749176011 2.42606344795 8.88420424624
36 1 11.9428615913 6.30631529674 11.7159009117
37 1 -7.90178898775 5.76606228062 4.98167370871
38 1 10.2263176267 6.91805469583 9.82177407684
39 1 -8.32835371579 8.04531241841 -1.49861948101
40 1 -0.422883451067 -6.74805063783 -11.1572705198
41 1 2.41893748774 1.80549090775 6.76236947653
42 1 -1.50663264574 0.803593901855 3.98501674173
43 1 -5.61018755508 1.37888057444 -4.3557817688
44 1 -10.5890731196 -7.26697690464 1.94585324984
45 1 7.60955202594 -7.99277899572 10.5004884423
46 1 2.03294228181 11.6821583763 -9.08086096424
47 1 -12.028873807 -3.55262693712 -7.24900595113
48 1 6.0656079948 10.1077624437 9.99512204751
49 1 -7.68271638849 11.2100823218 1.12270748438
50 1 5.90431821696 -0.143616321016 11.627414995
51 1 -4.35993832079 7.43770149184 5.64684987562
52 1 -4.08466056705 10.0739559517 -1.85883264448
53 1 11.0869016294 4.03461513306 -8.32947337049
54 1 -1.6049134242 -11.6196411314 0.607346697718
55 1 10.1162970771 11.1491058607 -8.33604390274
56 1 9.70143267185 9.31893954169 -11.2086361104
57 1 10.2915721009 12.2586778957 -2.18120846092
58 1 -1.31493444662 3.97830869494 4.88986632014
59 1 3.20266176882 -8.10535923939 9.37460185553
60 1 -3.77979088057 2.39595257136 8.14455848843
61 1 -0.057951021493 9.79620100865 7.76443998774
62 1 1.47119690165 6.11063175467 -6.02194165366
63 1 -1.20708951985 -0.183407107009 -5.48880427105
64 1 6.72060813726 -11.4562398619 6.10396677573
65 1 -11.9186040587 -2.81372106629 -1.72628966788
66 1 -6.53566580035 7.69086372465 8.88270436144
67 1 1.62294824226 7.75270121222 3.19862646846
68 1 -4.63878294747 -3.94476042262 0.854040343392
69 1 10.2178573525 2.70921121978 -3.53364950657
70 1 -7.58927834526 6.86475198324 -6.94039567607
71 1 -4.32390051189 -1.75071801278 3.69386208953
72 1 -0.96376393756 9.30743848795 -6.24725936344
73 1 8.86572144453 0.972448091583 11.7783225559
74 1 3.59976702521 -9.12128731748 1.47007376161
75 1 -5.28453255364 1.50094965552 -11.2750712862
76 1 7.93508509575 -3.616642956 -6.42404784195
77 1 7.32245706771 3.69697181969 -4.20452642109
78 1 9.64456330294 4.82125416445 -4.48170245059
79 1 4.75562023983 -2.46934118479 3.81017464922
80 1 -10.3712088174 5.58448814331 7.74868263099
81 2 11.8511294004 10.7515800234 -5.57976131245
82 2 11.3779208086 -2.51376002828 10.7759428494
83 2 -12.0888716452 9.01184148651 -3.64781637032
84 2 -0.0258337463618 0.629389880408 -11.5602273655
85 2 8.94027093731 -1.99619921833 -10.6477189224
86 2 2.85104619471 0.284553157298 -9.8880783516
87 2 10.3763458735 2.16582131149 -11.6726663234
88 2 10.0598403789 -9.82478165984 -7.01175269035
89 2 4.55075202045 -12.1728538002 -6.46797102537
90 2 11.3330953319 -2.81467381264 7.08135680381
91 2 0.0169917490758 6.23255865547 6.68657533299
92 2 3.04048151438 -6.82076043732 3.45916422962
93 2 5.802214026 -11.3572298377 8.51574533743
94 2 -4.81281848866 -0.864806938584 -0.0440473513161
95 2 -0.728960924574 4.74843357172 -10.1015043951
96 2 -7.10169668548 9.59403306358 5.03587939725
97 2 11.5460186346 11.0106187021 2.29080600217
98 2 -11.6080950992 -11.7615908141 1.49796192101
99 2 5.07822716523 5.49245400444 -11.8010073077
100 2 -9.61899220494 3.06677708481 8.23568089952
101 2 5.72876556046 -9.48205062721 -10.5788247141
102 2 9.22578733214 -10.9970386556 4.25997653235
103 2 -2.31646579131 -10.7518245217 -7.0347526863
104 2 10.0481243306 -7.80266343141 6.21656849835
105 2 -10.8875046114 0.334180487523 -4.88242757959
106 2 7.90399247757 10.748314811 11.5257293194
107 2 7.83774513759 -11.4648297686 -11.7331369091
108 2 -0.267848368237 0.94737504162 6.17059273678
109 2 -11.5638499985 3.00255989322 -9.22863026373
110 2 2.88041609904 -0.747215483041 -4.53869067371
111 2 -8.41965423174 -5.96257627428 -8.57899183414
112 2 0.207693712925 -9.72410686905 -9.14247681054
113 2 0.898452455679 2.89903751757 10.4020625102
114 2 8.19911327718 2.15534762156 -1.61098265545
115 2 10.6115455357 -0.108858693597 5.76784916599
116 2 -0.27757438019 -5.88194480388 -2.9174134673
117 2 -6.77493659506 -5.7132899156 0.722737097284
118 2 6.24120859504 -5.60024990864 0.197201140808
119 2 3.21203281147 11.3902833467 4.42383072082
120 2 11.1694899106 -9.43410396693 -9.98067789595
121 2 -10.8680490291 10.4076765819 3.5516355813
122 2 -8.21153936406 -9.58567322441 1.08358324791
123 2 0.738808609859 4.24266259335 -2.24526720517
124 2 0.132833257466 -2.36017219842 9.81246413451
125 2 -6.72390876821 -7.83354691403 -3.25493511649
126 2 9.08195314512 1.30932091221 -7.18173339728
127 2 -8.81086118382 10.756239392 -3.69870147341
128 2 8.49488664132 1.25574899083 -10.3873616649
129 2 -4.30679402083 -2.80381508196 -3.71580741689
130 2 -7.30757188516 5.17772024054 7.75492355618
131 2 -12.0069515723 11.5021108931 -1.20516226686
132 2 11.4106107287 -7.87634547629 -2.08386297321
133 2 3.30918591432 -0.391429573501 2.56985153231
134 2 -9.70472502252 6.69463473608 -0.522757023897
135 2 11.5000456602 -3.93151516789 2.10670816294
136 2 -3.55928218851 5.4113776026 6.57460824144
137 2 -3.53429545021 -11.8243261598 -10.9588322425
138 2 3.57229982926 -9.09945528516 -1.67989052244
139 2 -9.25890041525 3.73710520922 11.1958086459
140 2 -4.95514068041 -5.10470487548 -1.80725201052
141 2 5.65942439104 -4.05447956699 -11.5077815205
142 2 -1.96059922494 9.29599557994 3.79555391673
143 2 3.15875971766 -0.662725404672 -7.86903488869
144 2 -6.90124841257 0.108245964383 -6.54364531616
145 2 2.29006796991 -10.4023993918 -7.69552923346
146 2 -9.98121600227 -9.52007001193 5.66156241924
147 2 7.09867050443 2.0731818982 1.352736772
148 2 -4.77699148663 11.1426798631 -6.4571131149
149 2 8.65610529846 -2.93726245251 -2.89074126985
150 2 -10.0730042749 -9.2856060457 -8.69467628047
151 2 -9.33700132743 0.174418385154 8.22271026854
152 2 10.7013030172 5.07829183377 0.631591230833
153 2 -4.80493780184 7.35484507396 -10.3983254079
154 2 5.25326025899 -1.1113988713 8.94620517111
155 2 -1.90318090529 -5.56797748235 10.1639080905
156 2 5.37713131208 4.66737103509 -8.30400701556
157 2 -6.90902859909 -8.37757154337 -10.1672233676
158 2 -7.49343560206 1.29616653101 1.94862984247
159 2 5.11027843725 -2.42108364021 -1.92108207129
160 2 11.2198366769 -1.852059298 -4.95502369567
161 2 -5.3134609096 -4.7639598823 5.92715359936
162 2 11.6239456983 9.71336369673 8.99871863908
163 2 10.3345057748 7.62670507776 -5.86780987081
164 2 -2.36140184038 3.92564004994 -0.921204420899
165 2 7.03375504907 -3.51438322669 0.355870223664
166 2 -6.6901983536 1.50665681271 -0.178751226058
167 2 9.21825693047 -3.9456163299 -8.54835087763
168 2 5.48254592803 2.27499401299 -12.2446635737
169 2 -0.334425914833 4.54996247889 12.0196121757
170 2 -5.97474354317 -5.14365258015 11.8484594742
171 2 -0.576369134907 -3.15139071467 -0.0852887265081
172 2 6.68057127892 11.8176576845 -1.81224349262
173 2 5.66068058202 6.5851284853 7.93583192303
174 2 -4.64747578623 -6.94171921343 -9.57062025433
175 2 9.58524965416 4.18341491212 9.47895494597
176 2 11.0270521931 8.37888500179 5.00192318803
177 2 -4.59440689257 -8.91408668826 -1.67963946332
178 2 -10.9627586704 2.28311605763 -1.01022239397
179 2 0.909328811766 -3.73654372026 8.28241050322
180 2 -7.78024947151 1.51043723891 10.958043699
181 2 2.69617491099 11.5509754362 9.61171208854
182 2 -3.93084497966 -0.625758800481 8.00895725185
183 2 -2.09257978235 4.77933441536 9.77289413635
184 2 -3.63958481223 3.28916264541 10.155403374
185 2 -4.99765503823 -7.18596543709 12.1003671241
186 2 3.87354498317 -6.01934256841 -4.01380864754
187 2 -4.96347312422 1.22013724838 -8.94380198653
188 2 5.72577390748 10.4322773235 5.79926765038
189 2 -8.56488874993 -11.3347306138 -5.00665948285
190 2 -2.26910777131 -3.3882055718 9.26836271149
191 2 5.07524335286 8.15155675736 10.4782565165
192 2 8.53389690968 10.696042771 4.01032933577
193 2 -4.81734675997 -2.97644436255 11.2185262536
194 2 12.0218958974 -8.09356012984 8.76290628204
195 2 -5.16006438685 11.8087397913 11.0469614493
196 2 -9.14874387825 -3.98214490325 -10.0028030935
197 2 -6.7056093885 -3.88550063263 -6.83030580044
198 2 -11.3414143555 7.32027805814 5.81622017026
199 2 8.0890846943 9.27842252621 -7.28065917038
200 2 9.28527027754 -2.8711844741 11.2688070443
201 2 -3.14590846777 -5.64281364329 -3.36820430883
202 2 11.7679468103 -6.47380194237 -5.89750790253
203 2 0.951383548398 2.25334296884 -7.18868396141
204 2 -11.1614186279 1.73148017683 -7.16029615174
205 2 -6.56316038275 -10.5781274519 9.33354864109
206 2 11.2629280934 -11.1911236122 3.0838822906
207 2 -9.64695131603 0.174783007196 12.2729888215
208 2 -9.25522796189 11.1445162702 5.73315676469
209 2 -10.6585355104 -2.77429068716 11.2726137396
210 2 -7.18118183123 -7.03863021178 5.06982414381
211 2 -2.61440032502 -9.5778367462 10.2205239528
212 2 11.194574078 7.27314892674 1.20635721086
213 2 -1.79294116461 11.042936884 -2.60492425096
214 2 -5.97834866322 -10.9715013593 -2.75325511247
215 2 2.82877255497 -5.33572981256 1.58384698833
216 2 -6.037394895 4.65572765599 4.6240450141
217 2 8.16889267226 -4.54431671654 2.37959731979
218 2 -5.69587404112 -2.735632975 5.04346353688
219 2 -0.638963771896 -5.72820892649 0.254731071589
220 2 2.2900130418 -1.94803630603 8.80885812329
221 2 -10.4561597785 -11.4644455026 7.38458685025
222 2 10.1485714044 2.44326678335 0.0291849524345
223 2 2.62911246768 6.03183729992 1.42558823006
224 2 0.323073841207 1.60181326607 -4.54274661355
225 2 12.0432154187 0.436136465078 -2.65810029514
226 2 -9.76438128277 -0.419567608065 -0.700649747967
227 2 7.93836251533 0.29583229255 -3.53497078063
228 2 12.2611916206 -3.9426997113 -9.63956053224
229 2 8.54987116951 -7.57162713136 1.65188358608
230 2 -8.28305655617 10.5218528646 12.1110169205
231 2 -6.96249079434 -3.31861669515 -4.60372690219
232 2 4.23662357084 -6.48408497015 -11.2248215586
233 2 -5.95685499883 -2.75468621561 2.596038262
234 2 4.06406578702 2.48438306186 2.5833677775
235 2 8.31000662383 10.5588862475 8.63579448476
236 2 -6.69691705236 8.55403271193 -12.1786574473
237 2 6.17884760815 -3.93456898379 8.98725603362
238 2 4.68192113956 11.4990509882 -10.8412894417
239 2 1.78224398193 7.91051749375 -11.2672761903
240 2 -0.135663889279 -0.765825596402 4.2904538103
241 2 -6.82772433068 -1.19843561125 8.84718453995
242 2 8.2654560901 5.72005472991 0.498489579547
243 2 9.29837343739 -11.7243714085 -9.66978891449
244 2 8.06894538621 6.74582563223 8.34513353736
245 2 -7.60166430661 -0.302039440197 -3.10780369659
246 2 2.27921678034 6.80261546094 -9.03617599261
247 2 4.88009777544 -8.44700376745 -5.19796308804
248 2 -1.15833226762 -9.93147132665 2.65319933986
249 2 -11.0039859535 -11.0574315951 -0.878912029051
250 2 -2.7405361064 3.24463365996 1.51285284735
251 2 6.66359582487 7.01090539634 -3.19079104896
252 2 8.89480396205 3.3802370558 5.58489999911
253 2 6.19427206178 -7.06541799638 -8.48051171905
254 2 8.63879341925 -9.2940521869 -9.16050966119
255 2 -8.28787671684 -9.79339552204 7.09809724892
256 2 10.9517047385 11.6236930407 6.53524886058
257 2 8.20483195775 6.14301628835 -1.63348938425
258 2 -11.1923733866 -4.47636247489 -11.4840079239
259 2 9.36670301314 12.1859399743 2.2721231667
260 2 1.21666793722 0.24680241633 10.8459386812
261 2 1.51856196551 3.64909038662 -10.0788478526
262 2 9.53062010752 -10.7237316358 8.06345561231
263 2 8.01844501891 -10.2407028276 0.339781241499
264 2 3.5920984447 -3.89382173318 6.64207108419
265 2 3.93690723281 -7.17608640718 -8.13061290274
266 2 -0.0329363274273 7.06720439842 1.51644393541
267 2 -8.69018821731 -6.96113774414 0.467685540259
268 2 0.618692402946 -10.2654176572 9.22548869725
269 2 8.67292522932 7.22990742406 4.83116435544
270 2 -3.04457007086 -9.3726729567 -9.67786515041
271 2 8.28086568512 6.26274438484 -10.7122634028
272 2 -9.15871551912 0.238663576221 -7.10995333625
273 2 -11.9676913198 8.07770016145 -10.7137687812
274 2 -9.68096440508 -6.82650546843 7.87321956922
275 2 -9.72632676928 -12.0253386825 -7.90212600152
276 2 8.34682892248 -2.12558794667 2.68884131076
277 2 2.77580033129 10.9876641972 -4.30498583769
278 2 5.54604715246 10.8069073267 -8.57560608151
279 2 -10.3273040427 -4.341455589 8.47300636854
280 2 8.00469680072 8.01368123009 -5.12939021629
281 2 -3.85699207227 3.75334292067 -12.0842548443
282 2 10.2597366526 7.57966098695 12.1913530782
283 2 4.87109014495 -11.7875823284 -0.583942622991
284 2 11.9601544749 -0.275940131102 -10.1812649349
285 2 6.42238105961 1.76742237447 -7.81358220656
286 2 8.7177155707 -8.98576750343 -5.45557768244
287 2 -4.99872001298 -9.30365883737 1.42993833237
288 2 -2.28361025615 -9.722024138 -4.30960741453
289 2 9.84110909378 0.334309894467 -0.770000078146
290 2 -8.09844563871 -2.57689413915 -1.02472054074
291 2 -2.69690183597 6.75600848642 -6.26483395692
292 2 -10.5345814872 10.2602071023 -8.05644512179
293 2 -8.44364458343 1.12434489511 -10.2853082575
294 2 2.02590962778 -11.0366943223 6.72127529212
295 2 7.19625617589 4.92067186446 4.241496909
296 2 10.2931258899 -0.438058486426 8.92354311403
297 2 -8.68201087105 -3.19591380286 2.08432818754
298 2 -11.6713122943 -9.57053814065 12.1164397014
299 2 -2.33589090772 5.5897189042 0.732754105992
300 2 -4.13142093522 5.79314589763 -0.730691930771
301 2 0.695699446335 -8.26034846824 1.0819081014
302 2 11.2225148591 -4.30833356778 9.07007554136
303 2 4.60259100879 9.13945683751 -10.9053304063
304 2 1.83037594663 -2.88223925149 11.2189794847
305 2 -6.06984689218 10.1124117669 -4.64678754396
306 2 -9.65905409864 -10.1135268638 -3.43860939174
307 2 5.63661627483 8.90255755393 -1.61573124817
308 2 3.35041831732 -1.37017827719 10.5967611938
309 2 11.428486387 -7.7866110032 -7.58272521295
310 2 7.80111848144 8.59391294782 0.797809236587
311 2 -4.2122489263 7.01017327092 -3.78013731958
312 2 -6.68174779442 1.51353311347 5.02758542356
313 2 6.47841011532 -0.158352378874 -9.03906097893
314 2 -7.01968114047 -9.94654626984 -6.08011651455
315 2 2.1164924844 -8.53924097309 -3.24018359227
316 2 12.1324613359 -0.120726316887 11.2256551852
317 2 11.2788719067 -10.1767797806 9.91805076225
318 2 -1.20495392287 0.819241349435 -1.76119324337
319 2 0.389707963042 7.32459359792 -1.22482968053
320 2 0.5133851207 -9.40781710799 -6.64255850845
321 2 0.991004990866 1.04910192629 8.39252031051
322 2 -4.53805582989 4.05736560238 -6.9491278548
323 2 -9.14112079792 6.31058683375 -2.95352873094
324 2 -2.56505318174 10.9755698734 6.56635054676
325 2 10.8462424376 6.48377090541 -3.79737750353
326 2 -5.50285531655 -0.867890822023 10.9141879792
327 2 3.81630513969 9.17355550137 7.58810305715
328 2 4.91757904545 7.12288981474 -5.14956327708
329 2 2.10254754429 -9.93318681858 3.809935819
330 2 -1.84944592291 4.82370041183 3.03519211405
331 2 -3.84187742711 9.62762346663 5.03796733873
332 2 11.7763036028 5.75140332899 3.53425671773
333 2 2.74541693303 -5.25895514533 -7.28663617664
334 2 -5.6898798848 -8.66176934104 5.95692035589
335 2 -10.1711110468 -8.75173353877 -6.43551479921
336 2 6.23982774906 -9.17390319136 -2.84315807687
337 2 -10.1909777241 9.85282158657 9.32671656415
338 2 -9.33676666625 9.55906151699 -6.09590185624
339 2 2.04193315279 11.5119558943 -1.52443754556
340 2 7.42916377286 -6.72610288615 6.10707126955
341 2 3.07114464456 -0.567759626313 -0.275872900444
342 2 -5.11878245973 -3.9015851258 -8.50569139084
343 2 -5.46454177607 -6.68606029437 2.32619048758
344 2 3.59592085567 -8.92334161328 12.1091775492
345 2 -8.73900433723 -4.58317563592 0.21900623627
346 2 -0.392423214762 -11.4371983369 5.34517203735
347 2 7.33456780199 9.99522676971 -9.64815519531
348 2 8.83982569294 -5.57471821551 -10.069237441
349 2 4.88023015655 -11.2141014332 11.3837320528
350 2 11.5271764858 -7.44318818987 1.94829702991
351 2 5.34722509502 -0.370550336805 -4.71516373778
352 2 -10.2286178329 -12.0250952984 -10.2870628104
353 2 -6.33025380967 9.53874454441 -1.04082058216
354 2 6.34004536402 -9.17704832755 6.56919159419
355 2 -11.279941842 -8.59498892022 -0.261663280644
356 2 -8.9760500868 -4.67906196701 11.1545431996
357 2 1.8370955908 -10.9076195506 -10.3241269901
358 2 -11.3369076568 -11.6882034972 10.3672597403
359 2 4.68155969608 -2.05421508179 7.04030400888
360 2 -7.84588522093 4.23433948034 -10.4696621925
361 2 10.3748534574 -6.7668288499 11.3742894313
362 2 -8.34435552047 -6.34595909954 -12.0363716085
363 2 10.1229628702 5.52110365798 5.59973688946
364 2 0.469447935402 12.2479787246 -4.07844722765
365 2 -7.54758261446 -2.84912530918 6.52232338104
366 2 -2.68942924061 4.1485705444 -8.70238412862
367 2 4.2500077051 1.23406233588 5.4634961251
368 2 -12.2664579851 -11.7053177239 -7.60415745766
369 2 6.44691836572 -7.85477039968 1.84393828242
370 2 11.6721666464 9.02378283883 -6.76912675348
371 2 -2.32942439929 8.29124648074 -9.35904782709
372 2 1.18997918261 -2.54169482685 -2.94534026451
373 2 -5.58124557197 5.25847696245 2.03729409852
374 2 9.86703061761 9.2421700045 -1.32369383166
375 2 -8.67959994879 -9.88636577396 11.3440469636
376 2 -4.93104062679 6.5054867405 -7.62026051822
377 2 -11.6471304141 10.7711285501 7.34339225759
378 2 -11.3472514922 -0.326741074725 2.59293264484
379 2 -10.2147094876 4.94146262315 1.12797242324
380 2 3.27898862772 2.17912185865 -2.83555211628
381 2 -1.99942953978 8.42462678943 8.11302317227
382 2 -3.66538139269 -0.819483211951 -6.28786322111
383 2 -6.46496014157 6.9510238701 6.53046230545
384 2 0.774118422076 4.45090244146 -8.09001864986
385 2 -3.15477470045 8.92104779199 -7.12759164298
386 2 -0.689135159876 1.1255278124 -9.52251333571
387 2 5.23486091504 -6.97505340948 3.95326287709
388 2 -2.98291785057 -7.89226960804 11.8449694282
389 2 5.80212799005 3.68008594056 5.81636206965
390 2 -6.97187418382 -5.45761006091 7.86530389218
391 2 4.96483970866 -6.98350309011 9.79981931365
392 2 -1.47448036776 -0.54231078833 1.0697973462
393 2 -11.7444584471 -9.76256140888 6.95829310136
394 2 -9.88182313372 10.5187219949 -0.198702669875
395 2 6.14888933561 -11.5784793227 -4.97253973851
396 2 -1.32562275043 -5.9240802766 -8.28310282035
397 2 -9.36000355386 5.74612701879 -8.63731605818
398 2 7.43346634507 0.629850397699 7.99330350873
399 2 -9.11639101876 5.6645500512 -5.73577286335
400 2 -5.30954315447 7.08517904515 10.5622848566
401 2 -2.71585594374 -7.60079121095 -8.18041797814
402 2 -0.281496336673 -7.42675656089 6.20944509151
403 2 -5.93361241474 -8.56877492559 -8.118402276
404 2 -11.854521192 8.85884325892 2.01126922918
405 2 -2.53862180795 -10.7193543073 11.9964525507
406 2 -5.93536801074 -11.7082588831 -0.340308276027
407 2 -4.08329990739 -4.3701663508 8.16150453721
408 2 -5.17233829916 8.6709364165 7.30674921502
409 2 -12.0692278764 12.1032280657 -3.89331183178
410 2 1.27643002659 -1.99307926507 6.04399431835
411 2 -6.43080510965 12.2586316809 -5.16838762529
412 2 5.79025257298 8.47056615906 4.66120518961
413 2 -4.37979281534 -7.95292351047 -5.41098728709
414 2 -5.88279449975 5.92684766763 -4.59775178373
415 2 5.03539538221 2.31552611947 7.83972572529
416 2 -6.54301837898 8.74138843149 -3.04133175615
417 2 -0.430807360297 -4.97528964189 11.9276715626
418 2 -1.68173132299 12.0106032461 -9.67690124176
419 2 1.53332902044 4.0961285277 6.66113076866
420 2 -2.60141200614 -3.56885105058 -1.38701401293
421 2 10.4667562141 -4.22487762119 -4.79281289729
422 2 -0.349373260058 10.9168808543 12.172568355
423 2 -1.21801503303 -8.38067959747 -2.22233011128
424 2 6.48687241325 12.1574118964 3.56094425604
425 2 -11.1512630047 -8.81968384294 -4.33037477082
426 2 0.276956252855 9.91796751952 -4.00573880198
427 2 3.30811258874 5.09346086115 -6.17305158706
428 2 -11.178231951 1.70627270241 1.73235750092
429 2 -9.19452214794 6.60905494825 11.9121061748
430 2 -10.7662133798 -1.32040758538 -6.57622260189
431 2 1.58223402873 9.22988796748 -2.49388588585
432 2 1.07318287881 -4.19924175579 4.64957893126
433 2 -7.20692465731 8.84322460118 3.07238213102
434 2 -2.05229450008 -2.0630949709 5.27140209364
435 2 -2.20608236207 -9.27931387591 0.0286936734115
436 2 -12.1548945483 3.60903413644 -3.72429230254
437 2 -4.88796345078 11.1869666548 -9.63454084482
438 2 1.72231666159 -10.3177019549 0.368088628943
439 2 8.14776894814 -7.3106079263 4.20099055538
440 2 1.73356572108 -6.68865715512 -4.95389189369
441 2 2.83363734 3.29497493054 -0.791634924224
442 2 4.74016547989 1.4101100284 -6.39309336718
443 2 -8.4739627759 -1.30108644252 3.40954462978
444 2 -7.08371662198 1.96795405702 7.95803837196
445 2 3.97845355068 -2.40348852262 0.275932167748
446 2 -3.11677779195 -11.5878490718 -1.33792702473
447 2 -3.04166792581 -8.83093978408 3.94845348602
448 2 8.02745971999 4.98474200218 -6.42395174678
449 2 -9.76651698979 5.68964927446 3.63550665702
450 2 7.37763301127 7.46884384124 11.2503439123
451 2 7.59983551185 -5.58522934082 -2.88985739787
452 2 -2.74371988293 1.86371540472 -9.52687544957
453 2 -7.83190418667 -5.08852538738 -3.10834197478
454 2 -4.8006169419 2.094082685 1.06492882935
455 2 12.194893483 6.86634280342 -1.90993271571
456 2 -4.91773752636 11.3098950953 1.47567286321
457 2 -1.47953418974 8.33174523316 10.3194869034
458 2 -1.50507331018 3.01065781418 -2.61989157642
459 2 -5.03291269559 -6.85183942037 4.63773993483
460 2 -2.45702567755 4.21330156475 -6.02218745892
461 3 1.49224089633 4.75694840185 3.20619107836
462 3 -2.42482362618 -3.0838430773 -8.06344629097
463 3 -2.94991275482 -7.3249959368 5.76118199197
464 3 -12.057421919 -6.91931786085 10.932164004
465 3 -11.2818936993 -2.42947098188 2.60414356098
466 3 -0.550619389261 10.6708295945 -8.16947894197
467 3 0.260748842053 9.39785408334 -9.7688411152
468 3 -11.4563644364 -4.98248005712 4.46411289597
469 3 -8.7828088672 -7.10647610199 10.6365817017
470 3 -3.4430145963 3.78528471126 -3.28419507225
471 3 -9.91082476167 8.37768727783 3.88813763702
472 3 6.81599716381 3.52110099974 8.57660645452
473 3 6.63992343983 0.0685557471024 -0.372321495928
474 3 -2.62087864287 11.0483793469 -0.269617807095
475 3 5.7896699475 4.51364663579 0.269146357773
476 3 -5.51812471666 4.95364316375 11.5265138275
477 3 1.37260926342 -6.63134920106 -1.1690445203
478 3 1.86756976556 5.91813759351 -3.90970832337
479 3 -5.42920676491 3.76809063052 -2.0386319282
480 3 -9.6575173038 -6.20201749129 -4.22866106175
481 3 -8.57297004684 -10.4211348882 -10.9299269819
482 3 5.11628304843 -10.4606701904 -8.07422940843
483 3 5.83835823155 -5.02635581233 2.93987974013
484 3 5.42072868959 -2.75053314615 -5.22510109854
485 3 -0.968195974119 8.82386122527 0.59988787938
486 3 -3.89880033844 -11.9403998462 5.11371072388
487 3 2.37957412064 0.0252721597024 4.52332922544
488 3 3.94728021764 3.10654656605 -10.3374778768
489 3 1.33095099988 -11.819585722 10.9477434086
490 3 -8.24543556582 -1.49198273863 11.3722182837
491 3 7.09501161607 -1.33721445332 -11.5624999408
492 3 -6.85120005068 11.6114590283 8.41925521218
493 3 -8.07814907929 12.1777488762 -0.851703443585
494 3 5.87492174304 -5.21483386432 -7.39638203451
495 3 8.64779340146 -10.2155601769 -2.26387641702
496 3 -4.0165808273 5.84498763478 8.96427866261
497 3 1.63477376188 1.24589828042 -1.38173311738
498 3 9.32672341397 -9.62388613963 -12.2877264176
499 3 -2.38889126434 1.54811103315 -4.10229048555
500 3 11.7941213132 3.59650996074 6.92116555803
501 3 -10.6634101381 -9.38120018696 1.82594079908
502 3 2.44022731333 -3.55108760875 -8.55108995638
503 3 -8.4286043735 -4.88473961837 4.43188955994
504 3 -10.0988569002 -4.34300552263 -2.57119163426
505 3 2.74747315891 -4.72830648507 -1.81383069892
506 3 -2.19667074387 0.637938743503 11.9746889904
507 3 -7.92349286611 3.32003113448 -0.503211532914
508 3 -4.43024776659 -11.2290645247 9.07228443857
509 3 -0.0803721882099 -4.24140532081 2.54831931603
510 3 -10.3454990532 -2.44479787234 -8.96773319615
511 3 11.0404827402 1.00005355641 -6.30721472447
512 3 10.607385212 11.9412145263 0.0770200665142
513 3 -11.0532593264 -12.2596443558 5.02807950018
514 3 -1.17671912652 -9.02838172117 11.7567796819
515 3 -3.23703173973 12.0201158786 2.96773677097
516 3 12.1215363409 7.20701504326 -8.33113054164
517 3 -1.76604678829 0.43744195565 8.21280347442
518 3 0.836313765791 -0.420361793147 -0.0724507337207
519 3 6.09891969872 -9.28757452467 11.6485517327
520 3 -11.0840775045 -3.82915712402 0.0428104304
521 3 1.16946931891 6.16638265072 11.9881157513
522 3 -11.7256341856 10.7285302525 11.7638088436
523 3 5.27202954858 10.2492490105 2.91208033348
524 3 1.54999372774 8.93638178638 10.4446152161
525 3 6.65797139567 9.53628765097 -3.98911365672
526 3 4.38926110158 0.658646962988 -1.53234568248
527 3 11.8450270749 -5.27977770107 -2.34247359961
528 3 3.81833055434 3.94692837595 9.57452037158
529 3 10.2016755441 -6.58566676199 -0.514816782691
530 3 -11.3083619115 -2.39141846278 -4.58199199096
531 3 -1.94688417014 -6.3342532615 -1.45221430832
532 3 -2.41100042324 -0.969489183665 9.79332885103
533 3 -6.86656485327 -0.870768655231 -0.554596734936
534 3 3.64085662501 9.95118129496 -1.98018758489
535 3 -5.18706969686 -11.1238307515 2.50966188363
536 3 1.15418380737 -4.49974730085 -0.447968604868
537 3 -4.67147273105 -1.68772528298 -8.76727438435
538 3 -8.73218889594 3.5442305846 -6.16112775509
539 3 2.45017813965 -6.54158573336 8.03829657669
540 3 -6.66972888074 -9.11046622545 3.45428489218
541 3 -0.836971386724 -10.5984320266 -1.33435108673
542 3 -6.73088204182 6.23548620358 0.188585282096
543 3 -3.49874770033 11.1102489813 9.26545081857
544 3 10.8902460598 -8.39609090014 -4.33460603815
545 3 9.97892710396 -8.267666795 3.23720399858
546 3 1.47788566643 -9.64118668835 11.497093072
547 3 4.78683435453 2.0919126495 10.3201823547
548 3 9.73626365735 10.7851910542 -5.60645134498
549 3 1.84218922362 -8.21675017502 -8.92525197331
550 3 -2.48375477403 7.17748781716 -11.5505386057
551 3 8.23515547019 1.82120536325 -5.08503923611
552 3 2.047611989 -7.62683531854 -11.123512696
553 3 6.39759885854 7.32035391661 -6.78653154185
554 3 5.22678431364 4.70862933036 3.30226206484
555 3 -12.1357746479 0.897447615012 4.56807428198
556 3 2.8201226433 10.6271950763 2.05439781416
557 3 -2.80270013297 -10.6463314675 7.09246352317
558 3 -0.408171115737 -1.56150478062 7.59239478042
559 3 3.29382963688 6.56389325198 9.74939424998
560 3 0.634512058968 -4.65640253877 -6.45638318476
561 3 -0.233426116913 11.339617149 -0.819288416091
562 3 -10.6362385933 7.04231989036 -4.31151105707
563 3 0.547457285642 -8.04256254589 10.0161292683
564 3 -1.12148107336 8.15125916109 -2.84335143258
565 3 -3.6079051474 0.210143156554 2.51502023431
566 3 -9.73268308281 -2.08792260199 6.98389238928
567 3 -5.86466453858 -10.5407281504 -9.9940613415
568 3 9.97119637093 -0.792089975969 1.04932631302
569 3 -7.66325811427 2.72245516691 -3.50106722375
570 3 4.35914454358 9.5133092356 -7.32974509743
571 3 -5.38768606283 4.35508688417 -10.1137120541
572 3 11.0247484963 9.12885364985 -9.27909092122
573 3 1.36830354709 -5.59458451944 -11.0941529813
574 3 8.06580795701 -0.480169409916 -7.65245991884
575 3 -7.23068453208 -8.12568582317 8.79541071025
576 3 6.21926386518 -0.854251995164 1.55007650551
577 3 -6.39181979238 -11.4977870566 -7.50842058803
578 3 3.49107475618 -2.77331128196 -10.4800123628
579 3 10.6811300073 -5.46239924164 5.37893741455
580 3 5.14749761536 -5.28444407387 11.0878217556
581 3 -1.74669709921 -1.04797374042 -9.58873583672
582 3 -0.174277248576 7.60303819432 -7.8847716626
583 3 12.1873496655 4.82372668572 -1.07610252124
584 3 -10.4245197053 -7.75365989666 -11.9897851853
585 3 -1.0027219391 -7.26100911466 -5.68052212726
586 3 11.1973599742 -4.70537081577 -0.134242353048
587 3 10.5669109833 -1.03247435166 -7.93160151439
588 3 10.0266349776 10.1309892487 0.978630438831
589 3 9.48727201308 -3.43425476104 5.7989769485
590 3 -8.40517167307 8.86841313638 6.53135357563
591 3 -0.940556301502 2.10690883329 9.59773070793
592 3 0.643534011261 -0.109602344365 -7.03363362515
593 3 -0.863924164289 -1.57924436857 11.7420259441
594 3 -10.0901892696 0.269484978417 4.44114369375
595 3 10.0530541218 9.5463647917 6.66623979916
596 3 -12.1090190353 7.36821836342 8.29555057143
597 3 10.0453090758 12.1224831358 -11.7772932655
598 3 9.76808106514 8.48780552619 3.26904399608
599 3 -7.88395554458 -1.65818647834 -8.63883252677
600 3 5.62784785156 -9.1937874256 9.03228030763
601 3 -8.07222465882 9.06549087348 0.683430892858
602 3 -7.12021477329 5.39605847987 -8.57049344722
603 3 6.55429497842 -2.94580506438 -9.73631047993
604 3 -6.89839272796 -11.178580134 5.07433298351
605 3 -4.00505179899 8.59586053417 1.39282299123