As-quenched Zr-Cu-Al BMG, hand rescaled to 10K Volume

    1425 atoms
    3 atom types
-14.7233 14.7233 xlo xhi
-14.7233 14.7233 ylo yhi
-14.7233 14.7233 zlo zhi

Masses
1 91.22
2 63.55
3 26.98

Atoms
1 1 4.78393 -7.26953 -5.99763
2 1 -1.11788 6.79644 4.85453
3 1 3.91175 1.05779 2.60155
4 1 -5.64582 6.57036 1.03669
5 1 -0.19804 9.77936 14.6984
6 1 -0.126072 -10.7057 4.92802
7 1 -10.9513 9.81138 5.76937
8 1 -6.70638 -6.13191 -5.25961
9 1 -14.0341 1.62688 -1.58501
10 1 -8.62011 3.67809 -13.4604
11 1 -1.50946 -9.34152 -8.38841
12 1 -0.226955 4.80359 -3.68872
13 1 -4.4505 10.1229 4.53422
14 1 8.37202 11.018 -6.72972
15 1 -0.322364 1.82939 -3.84044
16 1 0.174763 10.8761 -11.06
17 1 11.1238 1.13078 12.9445
18 1 0.337669 6.01067 -10.9669
19 1 9.61275 -8.18847 2.45807
20 1 11.8959 4.28338 13.0743
21 1 4.76009 -0.246118 7.41562
22 1 -7.7876 -11.3634 -10.0501
23 1 0.759113 8.34736 0.0752029
24 1 9.85213 1.68959 -1.13046
25 1 5.02392 5.40707 -13.8015
26 1 4.2768 -14.1478 -3.38184
27 1 7.74618 -4.0971 14.2208
28 1 13.5114 13.4598 2.99524
29 1 -9.76262 -4.52315 0.330186
30 1 -11.2372 -1.64272 -10.7077
31 1 5.42012 7.11852 -2.83905
32 1 5.76489 -5.53378 -13.7397
33 1 -11.0747 -3.2406 -5.43134
34 1 13.1092 12.2406 0.230068
35 1 0.524126 -11.2813 -4.75286
36 1 13.8828 12.3006 12.1167
37 1 -13.0069 11.2429 -13.9898
38 1 -13.155 9.69357 -9.12956
39 1 -3.74906 8.61648 0.263079
40 1 14.2029 -2.57994 10.7409
41 1 -14.4058 -10.5143 8.14273
42 1 10.9027 -12.0269 -2.8857
43 1 -12.9712 13.557 -6.64647
44 1 13.3077 -5.69341 2.38351
45 1 -1.49282 -1.92953 1.34895
46 1 7.17192 -8.65101 4.60186
47 1 0.834407 9.48142 -5.65268
48 1 -3.17506 -0.124032 11.6156
49 1 3.12183 3.12364 7.48717
50 1 12.1767 3.58287 10.8374
51 1 -14.098 0.302258 4.08039
52 1 -4.18884 -7.57927 -13.7215
53 1 8.56487 -0.408641 -4.79818
54 1 -6.07284 11.5989 0.268684
55 1 -13.7324 -10.8015 3.0118
56 1 -7.95409 5.74053 -1.78724
57 1 12.7706 -7.18885 -6.86726
58 1 -10.8544 0.545247 -2.128
59 1 -2.74771 -6.23434 9.33243
60 1 9.84862 -10.1337 -0.176634
61 1 -8.72864 -1.51058 -4.03268
62 1 -8.24434 -12.0442 9.51088
63 1 -10.7481 -3.39319 9.71214
64 1 -7.72583 -6.15061 12.281
65 1 -0.0382442 -5.52031 2.88625
66 1 -10.5832 -3.26407 2.92839
67 1 -10.2187 12.5269 -10.9811
68 1 -2.81665 2.94044 -5.23672
69 1 5.4678 -13.4471 9.04624
70 1 6.5825 2.64437 2.04097
71 1 5.7621 -5.99199 -3.30017
72 1 -5.68445 9.47174 2.02894
73 1 -11.2702 -7.79772 -6.8687
74 1 -5.22671 13.3288 3.72062
75 1 -10.4981 7.57944 12.5421
76 1 6.86152 -6.60822 -8.52611
77 1 2.78579 4.39394 -6.63243
78 1 13.3101 -6.16371 -11.0639
79 1 11.4435 -7.6975 -1.80851
80 1 -11.2664 8.71438 -14.1348
81 1 13.3076 8.54174 -9.49333
82 1 -12.4321 -7.69784 6.59206
83 1 7.19258 -2.59892 6.91885
84 1 4.5986 8.15465 3.43817
85 1 1.00779 9.89921 9.7639
86 1 -13.6495 -4.41626 3.65038
87 1 -8.17998 -10.9812 -2.40467
88 1 9.13946 -12.9437 -0.366837
89 1 7.7804 -8.12494 -5.98814
90 1 0.109597 -13.8853 0.0202332
91 1 -5.8607 -1.42223 10.2219
92 1 8.64152 -6.26221 -2.47444
93 1 5.10391 5.94881 12.8066
94 1 5.28004 -3.47087 1.03085
95 1 3.91222 5.19726 4.80882
96 1 -7.1523 -8.23131 -14.6939
97 1 14.1059 -7.51686 8.35908
98 1 -7.64965 0.35911 -6.24997
99 1 -1.18 14.4281 -2.43331
100 1 8.68709 -13.1001 -4.835
101 1 -0.36126 6.14569 10.723
102 1 12.6574 -4.75104 -13.4906
103 1 9.77178 -5.72202 14.7214
104 1 4.80866 -4.56775 -6.19114
105 1 -4.44809 -8.59529 1.66729
106 1 -3.48067 12.2149 -5.85366
107 1 9.823 -13.8368 -10.1643
108 1 5.80497 9.45929 -8.36931
109 1 12.6181 -8.56368 -9.60318
110 1 -0.289476 -1.62583 -7.51627
111 1 -11.2292 -13.74 9.39083
112 1 -12.6755 5.6152 -6.51179
113 1 6.5951 -8.66032 -3.10664
114 1 11.7708 10.0361 12.9914
115 1 -7.18984 12.6341 8.44503
116 1 -13.148 -0.479512 10.3981
117 1 -11.4908 10.5987 2.68933
118 1 -12.9933 0.544276 1.06049
119 1 10.6183 -10.2459 4.57208
120 1 -1.22857 6.8736 -5.99839
121 1 2.96353 5.75973 -9.33869
122 1 7.19328 14.0788 11.2796
123 1 12.1259 13.4998 -9.46125
124 1 8.9387 -4.35884 8.49926
125 1 -14.5729 -6.62712 -14.0318
126 1 -0.213643 -8.49272 -5.84974
127 1 9.84375 12.3431 -11.4411
128 1 6.38745 1.15921 -12.9646
129 1 -6.99209 1.69822 -8.97009
130 1 -6.15613 13.0717 -4.29837
131 1 -4.16958 11.7412 -12.8126
132 1 13.8271 -9.33675 5.69728
133 1 3.64397 2.1877 4.88336
134 1 -3.80144 -13.3497 -1.92744
135 1 2.67903 6.8469 2.27483
136 1 -5.56633 -6.96267 4.02716
137 1 1.15033 -12.1323 13.9132
138 1 0.188931 -0.0622005 7.84558
139 1 -5.26677 -13.1574 5.24314
140 1 6.90974 7.03008 10.905
141 1 1.64696 14.1542 -3.39558
142 1 6.99763 -14.0245 -1.89962
143 1 13.3358 -0.455176 -11.2152
144 1 11.5579 2.67449 3.82946
145 1 -0.793895 -3.96636 -4.00009
146 1 -11.931 -12.5554 4.83254
147 1 -4.99445 -1.85468 3.81509
148 1 9.95244 14.2288 7.08192
149 1 -0.800254 3.01295 -1.15417
150 1 -9.72938 9.2886 -9.59636
151 1 -0.138273 -1.3265 10.6435
152 1 6.43404 4.04861 -11.6689
153 1 7.85882 -3.18693 -2.95164
154 1 14.499 -11.519 -13.4145
155 1 12.7014 -8.3089 0.916843
156 1 -11.8788 -5.97169 13.4457
157 1 10.0158 2.44171 -5.82913
158 1 6.91812 -12.7493 1.52398
159 1 -3.76919 -4.79899 -3.47524
160 1 -4.72711 -7.97655 -3.63666
161 1 12.8447 5.93324 -3.40748
162 1 7.93973 -5.18718 -5.31578
163 1 5.2884 -2.66296 9.6321
164 1 -6.62824 -5.58801 -2.44944
165 1 -4.12975 13.8758 9.10539
166 1 4.11703 11.0677 -6.60459
167 1 -4.02976 -6.83462 -0.973177
168 1 14.3766 5.59965 11.3015
169 1 5.98665 -4.19067 -10.7208
170 1 -2.96236 8.43222 -8.06183
171 1 -8.85868 -3.87747 -9.46537
172 1 12.8506 -10.5642 -1.3566
173 1 -5.75908 10.3286 13.7803
174 1 8.66585 -2.58033 10.8007
175 1 7.414 -14.1752 14.4071
176 1 -3.35413 8.42122 14.5658
177 1 -11.2015 7.76518 2.1945
178 1 -0.595478 4.41384 -13.543
179 1 -8.18545 -14.6272 -5.83883
180 1 3.80376 -0.854532 -13.8752
181 1 2.40186 -10.4392 2.90019
182 1 8.09908 1.45905 13.8498
183 1 13.0173 13.3402 7.85382
184 1 -7.54036 -9.56943 4.50243
185 1 -2.75967 5.12831 -11.4508
186 1 -10.2935 -0.0785456 3.41261
187 1 1.03509 3.3884 -10.7
188 1 -5.94959 9.05629 -13.0988
189 1 -8.5783 -7.83082 9.695
190 1 -4.84084 -0.834384 6.73069
191 1 0.0947027 -3.04487 8.06791
192 1 5.47289 -1.06282 -10.5193
193 1 0.0590973 -1.3581 5.4109
194 1 5.12902 10.9354 2.12912
195 1 -1.69204 -9.10303 12.7472
196 1 -3.84003 7.94857 -11.0021
197 1 -13.0015 -7.76912 -4.32494
198 1 -2.72269 0.984201 8.668
199 1 13.4111 7.07973 4.09524
200 1 -7.98591 -4.68009 9.82337
201 1 -12.055 7.79353 -10.906
202 1 3.0387 -1.84964 -10.9808
203 1 0.673938 -10.7296 11.0676
204 1 -1.08444 -8.34387 9.83174
205 1 4.66852 3.2416 11.5754
206 1 11.7467 11.7737 10.1367
207 1 8.78612 0.967994 -8.34743
208 1 10.7362 11.9784 2.22782
209 1 10.3565 3.77864 -8.23794
210 1 -8.53112 14.6273 10.8335
211 1 0.0376511 -8.5461 2.42871
212 1 -10.424 10.8494 -1.0852
213 1 -8.30015 12.3468 13.5865
214 1 -13.0065 6.79249 -0.446217
215 1 -1.53143 -0.833826 -12.3049
216 1 1.03944 -9.74167 7.99101
217 1 -14.109 3.91361 0.535909
218 1 -7.27496 -3.62352 14.0832
219 1 3.6082 10.2273 4.98337
220 1 0.48438 -10.4652 0.222311
221 1 -0.608604 -1.17205 -4.43169
222 1 11.3533 -1.39943 11.5377
223 1 -1.35338 1.05056 1.31186
224 1 -5.05193 4.38881 12.3682
225 1 -6.80907 -9.48228 -5.01421
226 1 -1.84258 4.15518 12.6665
227 1 11.3941 0.735511 -3.89357
228 1 2.00834 0.9631 -1.60364
229 1 -1.82631 -11.2715 14.6709
230 1 -3.70313 3.00089 2.26691
231 1 -6.93714 9.74572 8.52644
232 1 8.15665 13.6341 0.659174
233 1 8.77714 -10.5168 11.8641
234 1 -14.6549 -3.40288 -11.2377
235 1 -4.03488 0.10302 14.6374
236 1 11.2988 -10.9117 14.5434
237 1 -10.5266 -2.68173 -2.05517
238 1 -6.29743 -8.67273 11.5403
239 1 -8.88896 8.51504 -6.01547
240 1 -8.85906 3.53467 -4.28513
241 1 9.80966 -7.34984 -9.98891
242 1 -2.27408 8.72399 2.92636
243 1 10.8657 -14.5552 1.91515
244 1 -5.29368 -3.38643 8.26531
245 1 -9.80707 2.03204 -7.49851
246 1 4.49237 1.17026 13.5574
247 1 -13.625 -7.72433 1.6368
248 1 -14.1324 14.4788 10.0719
249 1 -7.93927 5.57817 13.1463
250 1 -11.5202 -11.7672 -1.58843
251 1 12.1056 14.5733 -4.01067
252 1 -4.97069 3.38755 9.52161
253 1 8.73292 2.04805 8.62155
254 1 8.235 5.36865 -9.81764
255 1 9.35173 -0.0334663 -12.7813
256 1 -11.0987 4.90742 0.257538
257 1 4.85012 13.4292 13.918
258 1 -5.67689 10.2228 -10.5225
259 1 -14.513 -5.45671 6.46743
260 1 9.50468 -9.23885 -3.04414
261 1 14.4329 10.8647 -7.20849
262 1 14.1284 -1.06684 -3.03396
263 1 -2.24224 -14.2588 -12.8297
264 1 9.27192 -3.32359 -12.4319
265 1 -13.7779 -9.88717 -2.96762
266 1 12.559 -12.6397 3.61255
267 1 -10.7424 -1.29186 12.1874
268 1 2.51327 1.11829 9.6348
269 1 -8.50793 7.62886 6.64154
270 1 11.7614 6.24726 -9.92065
271 1 -7.21271 -14.5568 -14.0248
272 1 3.95551 -9.80437 -2.0975
273 1 12.6888 -0.394758 8.42705
274 1 14.0457 7.84056 -0.861681
275 1 -1.73961 2.08243 -11.3313
276 1 -14.6739 12.5283 -4.41471
277 1 -6.21594 6.48965 8.4594
278 1 -11.8239 -8.4231 8.71356
279 1 -0.508023 1.35002 12.5878
280 1 5.97519 1.96047 -9.745
281 1 -12.6514 11.8863 11.7439
282 1 -8.17776 -2.63306 -6.60835
283 1 -12.0462 -4.27748 6.69172
284 1 4.88753 8.47848 -13.7006
285 1 -12.4483 -14.7133 -10.4444
286 1 4.28407 -8.39644 4.22076
287 1 5.63831 -7.39096 8.28582
288 1 -13.739 -13.3148 7.41426
289 1 5.12788 0.496829 -4.88702
290 1 -2.80648 -10.0895 -0.77446
291 1 0.52239 -5.53832 14.3836
292 1 12.9803 5.31029 -6.84939
293 1 -6.91542 -6.59265 -8.70321
294 1 8.97127 12.5339 4.73856
295 1 -5.1811 -11.3072 -2.85577
296 1 10.4438 5.56416 -5.27058
297 1 1.43384 -4.49944 -6.13262
298 1 3.40949 1.21398 -11.4508
299 1 10.9039 -2.02343 -3.20986
300 1 2.84485 -4.76891 7.62819
301 1 -7.20113 12.2762 -12.7211
302 1 -14.4811 -10.5226 -5.88795
303 1 -12.0473 1.88601 8.59062
304 1 4.89263 -6.92337 -11.1673
305 1 10.8352 -4.81762 -3.45561
306 1 -8.48345 13.5304 -0.321323
307 1 -3.9788 11.1418 -8.03753
308 1 6.16421 12.5424 -8.09491
309 1 11.6578 10.7302 -9.09942
310 1 1.47891 -5.71229 -9.01162
311 1 -3.75843 2.01283 -0.476019
312 1 13.3346 4.70756 6.00262
313 1 1.89065 10.5393 2.55331
314 1 12.5888 -4.38216 5.05462
315 1 0.202266 7.93294 7.32987
316 1 -14.0937 6.46058 -8.7877
317 1 -9.93459 -10.2791 10.443
318 1 9.49464 10.0564 -4.1341
319 1 -0.990239 10.7894 11.9405
320 1 -14.0288 -0.283897 7.24673
321 1 -0.930358 10.6754 1.13753
322 1 -11.5481 10.5998 -6.52453
323 1 -3.19473 -5.05831 11.7375
324 1 -13.9762 -10.1692 -0.0517054
325 1 -4.07561 -2.60762 13.2297
326 1 9.31267 9.00075 0.912534
327 1 0.73323 10.4294 -2.50023
328 1 -9.27197 -3.99963 5.57739
329 1 -13.2839 -11.594 -10.8507
330 1 11.6307 -12.7159 -12.4026
331 1 -0.873127 13.6564 2.50465
332 1 -0.877117 10.7986 -8.00711
333 1 5.81277 9.20209 -5.16476
334 1 13.8342 -0.809318 13.3252
335 1 8.33222 9.81843 5.64906
336 1 -9.45222 1.05877 -11.6013
337 1 -7.1399 -13.4464 2.63803
338 1 6.28868 5.6926 2.96458
339 1 13.8647 0.900823 11.0961
340 1 6.36827 8.36458 0.547119
341 1 6.02329 -11.8149 -13.4733
342 1 -11.4333 -9.13829 3.75454
343 1 0.668762 12.8071 -0.164024
344 1 -2.17026 -10.6946 2.22797
345 1 3.12752 0.147987 -8.43595
346 1 -3.41328 5.45497 -14.6472
347 1 7.16136 4.06161 9.75476
348 1 2.14291 10.6236 -8.71231
349 1 1.80897 12.0264 -13.9008
350 1 -11.8294 1.37294 5.55321
351 1 -10.9441 7.64461 -7.72456
352 1 11.8161 7.15345 11.4402
353 1 -2.22293 -9.77215 -3.6448
354 1 -13.4465 6.84429 -3.70158
355 1 2.29002 -2.9972 -4.13503
356 1 13.7527 -13.6461 -10.5922
357 1 -3.87594 10.1749 7.62343
358 1 4.81591 -10.1678 -11.0066
359 1 -10.2401 14.6202 -8.45249
360 1 -1.13679 -1.26899 13.9599
361 1 7.55663 2.21634 -3.25482
362 1 13.0721 2.40299 -14.4677
363 1 5.90559 4.96747 6.99575
364 1 11.0824 -1.35359 1.0991
365 1 9.8795 -3.95379 -0.740892
366 1 9.52145 6.6121 -12.3259
367 1 9.84518 12.1002 -14.6007
368 1 -11.65 5.94374 -12.5713
369 1 -3.68066 4.42181 4.91639
370 1 -11.5966 -10.69 -13.186
371 1 8.36975 1.71116 4.1932
372 1 -12.6302 -4.15737 -13.4531
373 1 -14.0699 -8.26817 -7.41177
374 1 -0.08603 -12.6561 2.55711
375 1 -11.4143 4.79118 7.56742
376 1 0.857932 7.41372 -2.96381
377 1 2.78645 -10.0002 -6.59073
378 1 11.1195 -2.94549 14.3601
379 1 -4.94616 -11.0208 3.52275
380 1 11.8345 -0.358869 -13.827
381 1 -8.73315 0.0299358 10.2255
382 1 -10.9412 6.76967 5.16468
383 1 2.98528 -7.68079 6.75228
384 1 -9.42361 -6.01618 -1.79609
385 1 9.01322 -0.918318 -1.26849
386 1 -13.5642 -3.0682 -8.28967
387 1 0.282333 -2.91985 -10.5131
388 1 6.25021 -0.521459 1.9277
389 1 -7.56215 13.9543 5.36991
390 1 -6.47817 2.10993 -12.109
391 1 5.568 6.09012 -5.95618
392 1 -10.5126 0.768638 -5.11405
393 1 2.82089 6.22736 6.85592
394 1 -0.921466 -14.6873 8.67159
395 1 13.7398 -3.95156 -3.93003
396 1 2.6568 -6.69543 2.79773
397 1 -3.57515 7.20456 6.76683
398 1 -5.12934 -6.15366 13.3865
399 1 -3.05058 14.6206 -4.8931
400 1 -6.21166 5.01325 -11.158
401 1 -2.62599 -8.56098 4.25094
402 1 -3.36933 -7.42484 -11.3812
403 1 -11.0162 -6.17745 4.18403
404 1 -10.3524 -12.0442 -10.3805
405 1 8.25536 7.38019 -4.70077
406 1 10.4087 -10.3501 -5.56961
407 1 6.30627 2.11557 6.73837
408 1 -0.102271 -6.25909 7.32517
409 1 1.05711 0.293141 3.38501
410 1 1.6658 8.46166 12.3724
411 1 1.4769 -4.50163 -1.54745
412 1 1.9096 -13.4978 -10.2702
413 1 13.5085 14.2438 -6.70898
414 1 -11.7405 3.79486 -2.78136
415 1 -9.29362 13.411 -3.35623
416 1 -13.2945 9.39134 13.0466
417 1 7.40431 -7.42572 13.5354
418 1 5.93737 7.65289 5.73716
419 1 -8.25439 -14.5775 -10.9425
420 1 7.10593 11.0492 -10.6955
421 1 -9.76375 -3.8685 -12.6275
422 1 3.2557 -12.3227 11.0634
423 1 -1.78382 8.63144 9.33362
424 1 -14.6257 -6.32917 12.1891
425 1 0.789903 -8.96395 14.0863
426 1 -6.67005 -11.593 14.6519
427 1 13.9762 -0.799852 -8.06723
428 1 5.75675 -8.65059 -13.519
429 1 -14.3926 10.5807 -1.70035
430 1 -14.3987 9.47372 -12.1229
431 1 -10.602 5.56316 -14.6842
432 1 -1.52978 -13.7472 13.4984
433 1 -13.1169 8.20264 7.41699
434 1 -7.86963 10.9448 -2.46679
435 1 5.65843 -9.92479 13.0525
436 1 -13.2723 3.73571 -10.7346
437 1 9.35131 -13.5267 12.9542
438 1 6.73267 0.922458 -0.617746
439 1 12.9648 -8.90306 -12.8276
440 1 -2.99934 -13.6214 6.85905
441 1 12.7143 10.4862 -4.58815
442 1 -5.62171 1.78234 -4.5634
443 1 9.75096 -1.03697 8.4509
444 1 0.526338 -13.8117 11.1122
445 1 14.4851 13.22 -12.3141
446 1 -9.39832 -5.95992 -14.7214
447 1 2.13269 3.92543 -1.7722
448 1 -11.2713 2.12959 -14.5129
449 1 0.521325 -11.6385 -7.95732
450 1 -6.26429 -1.32299 -13.5021
451 1 14.0657 9.68256 10.6037
452 1 10.4169 -7.18365 -4.96487
453 1 -6.51775 -0.693713 12.8444
454 1 1.24868 12.5543 8.30442
455 1 2.81093 -14.6098 -13.0943
456 1 11.1788 8.46046 5.78415
457 1 9.73857 -7.5856 11.5225
458 1 10.3978 -10.0754 -11.7573
459 1 10.7804 8.90925 -6.816
460 1 -1.3418 1.77328 -14.3152
461 1 -1.2378 -13.8663 -9.7925
462 1 12.4385 9.35896 1.21653
463 1 1.52368 12.6258 -6.1987
464 1 12.4358 13.1314 -14.6921
465 1 -10.3925 5.31764 10.9189
466 1 4.11712 -12.901 14.0261
467 1 5.87515 -9.72032 -8.01769
468 1 -8.91051 3.52317 -10.1071
469 1 -9.1194 -12.0873 -7.29123
470 1 -8.74228 10.6157 1.37011
471 1 8.03446 9.48831 -13.0985
472 1 4.11438 -12.165 -8.75011
473 1 1.34986 -1.14051 0.694204
474 1 -11.9889 2.77176 2.60533
475 1 -5.92519 -9.45457 -0.726974
476 1 5.64468 10.5774 7.19313
477 1 1.5455 -7.93267 11.5524
478 1 5.24339 -5.51655 5.51323
479 1 -14.3645 -5.7904 -8.81621
480 1 -6.81432 8.73238 -0.898609
481 1 4.34189 2.77555 0.0430326
482 1 -2.07035 1.67987 -7.9094
483 1 4.26649 5.45997 9.43035
484 1 -8.24768 -5.81319 2.52822
485 1 -3.07784 4.93605 -0.0356731
486 1 -0.913738 -0.0755262 -1.45968
487 1 -9.97732 10.7344 8.54279
488 1 4.73325 11.6381 -12.9685
489 1 -8.82098 -8.55045 -0.390409
490 1 -4.53236 -3.69673 -1.13992
491 1 -14.1386 1.41023 -9.14253
492 1 -11.3026 1.81633 11.55
493 1 3.52225 8.9834 -2.00967
494 1 -3.71532 -7.2039 -8.55571
495 1 8.60212 -14.3622 3.64567
496 1 5.03238 -2.95102 -3.4686
497 1 -13.6102 4.06627 -13.882
498 1 -5.52229 13.2038 -9.55826
499 1 -12.0821 -0.446966 -7.32446
500 1 5.7442 -12.3035 -5.98526
501 1 10.9792 -0.467201 -6.86742
502 1 8.93127 -1.36016 13.754
503 1 11.5629 8.63478 8.79398
504 1 13.827 10.1342 7.29526
505 1 3.13697 -8.56665 0.585683
506 1 -9.26532 2.29835 1.59269
507 1 -5.92813 -4.31481 -7.28413
508 1 -0.603469 -8.04897 -10.8187
509 1 -8.4702 -2.73257 8.22566
510 1 -3.35232 6.00109 9.92098
511 1 -14.3717 2.88951 12.7165
512 1 3.7726 -7.95273 -8.75609
513 1 -12.387 -12.9305 14.3526
514 1 13.7132 7.87844 -6.18196
515 1 -9.99229 14.6756 4.03617
516 1 12.3423 -9.87278 9.43477
517 1 10.3077 -1.4463 -9.95561
518 1 -5.01515 -4.91844 -10.5488
519 1 3.93177 13.2597 3.92449
520 1 9.6315 2.82239 1.4703
521 1 3.57432 -7.42101 14.0598
522 1 8.31256 -5.22722 1.53588
523 1 -11.8996 -1.88474 5.50499
524 1 -6.34139 3.79105 0.605585
525 1 0.904578 -9.28808 -2.46012
526 1 -7.54304 4.78743 10.4785
527 1 2.75297 -2.93167 -8.32237
528 1 5.39254 -9.91631 6.92399
529 1 1.11086 8.3102 -12.6401
530 1 10.07 3.95246 -2.98131
531 1 5.00101 14.4918 1.01154
532 1 6.63929 -10.3892 -0.407579
533 1 -12.8912 4.24232 10.1928
534 1 12.6273 -3.23927 -9.09841
535 1 9.98983 -11.9116 7.57412
536 1 12.4962 -2.07672 -5.81347
537 1 -7.9227 1.10248 -3.06421
538 1 -12.629 -2.74911 0.595468
539 1 11.9342 11.9222 5.375
540 1 -6.45302 8.0605 -3.85452
541 1 7.29843 12.6941 -13.1801
542 1 0.132285 -12.7222 -12.5223
543 1 -4.51497 1.17372 4.43353
544 1 5.16296 3.48607 -4.66688
545 1 14.5115 -3.81914 13.8764
546 1 10.9118 -7.14781 -12.8459
547 1 0.660914 -10.1528 -12.8234
548 1 -14.203 0.643608 -13.9617
549 1 -12.8229 -11.249 10.352
550 1 -10.9135 -0.746123 -13.8342
551 1 -12.2106 -12.2348 -7.90148
552 1 8.78273 7.05969 4.08132
553 1 -6.75509 6.55781 -6.82879
554 1 10.0857 -14.6881 9.95755
555 1 -4.70213 -4.4762 -13.5547
556 1 -0.110063 -5.00868 10.1037
557 1 2.1544 -12.3326 -1.88779
558 1 -9.01127 3.0654 -1.11865
559 1 6.99059 -0.195035 9.20168
560 1 -5.66988 13.8263 -1.7545
561 1 -9.81038 7.90306 -0.225516
562 1 14.6799 6.36376 -11.6152
563 1 -9.34609 4.91874 -7.07021
564 1 8.13827 9.27751 8.78366
565 1 -13.3245 5.75222 2.84325
566 1 -1.33624 -2.87246 -1.47618
567 1 3.36944 7.87928 -7.27511
568 1 0.719927 -6.88499 -0.0845003
569 1 -0.613176 -3.60742 12.526
570 1 10.0385 7.00784 -1.97593
571 1 -12.7372 -3.55358 11.932
572 1 -5.70413 4.86587 -4.60279
573 1 14.2406 2.69049 8.77295
574 1 8.00506 12.5322 -2.43875
575 1 11.719 1.24848 -9.35123
576 1 12.2119 -7.1744 13.6786
577 1 7.47434 3.92871 -0.696489
578 1 -1.94188 -8.78624 7.13375
579 1 -10.4442 7.59088 8.65435
580 1 2.42996 -13.4975 4.18241
581 1 -4.81256 6.23089 -1.96409
582 1 13.5398 -6.81565 -4.17755
583 1 3.08445 12.3694 -2.01634
584 1 -13.0681 -5.57965 9.5111
585 1 -1.60065 -11.4571 8.82631
586 1 6.05403 -0.31903 -7.66478
587 1 -5.66457 7.3424 11.7697
588 1 -10.8107 -0.668974 8.11624
589 1 -8.62638 -10.0329 -12.6667
590 1 8.29822 -2.49306 1.4697
591 1 0.65837 0.257555 -9.94622
592 1 5.92737 -2.64569 4.05881
593 1 -10.0183 -12.4137 -4.20634
594 1 -13.404 -5.3545 -5.76539
595 1 -9.76494 -6.13518 7.69651
596 1 7.02488 -5.50172 10.7264
597 1 4.99085 5.69295 0.414155
598 1 10.0309 11.3587 -0.609554
599 1 12.1058 -4.56076 12.1848
600 1 -5.38584 -10.0965 -12.2673
601 1 13.1431 1.90223 -6.62776
602 1 -2.86316 -2.66453 10.0545
603 1 -4.01951 3.00404 -13.3847
604 1 -6.57746 2.2345 13.9508
605 1 -1.93181 13.6652 11.2925
606 1 5.48794 -5.60429 2.70886
607 1 8.80628 4.28942 6.21439
608 1 12.9297 4.42841 -12.402
609 1 2.01075 14.259 13.1304
610 1 -6.78042 -13.9177 7.99089
611 1 12.7778 2.78941 -1.71165
612 1 -3.41466 11.8194 2.16877
613 1 13.4328 5.88999 14.5752
614 1 3.26957 13.763 -8.71383
615 1 13.5325 1.61755 5.83992
616 1 12.9844 -12.8987 9.06071
617 1 0.51517 7.94754 -8.46702
618 1 -14.4494 3.96549 -4.72747
619 1 10.4181 7.14639 14.2371
620 1 11.4007 12.0416 -6.43474
621 1 -6.19056 12.9502 11.3037
622 1 7.71227 -11.3754 -10.8434
623 1 -6.65309 -13.0991 -0.404622
624 1 3.70248 -9.21452 9.75363
625 1 -5.63367 -6.16832 9.76517
626 1 1.11313 12.557 4.69931
627 1 -3.74021 -0.860559 -0.502077
628 1 11.7832 9.57933 -1.86972
629 1 8.7493 6.01942 1.13017
630 1 13.2118 3.65854 -9.56076
631 1 -11.1516 5.30515 -9.53672
632 1 -11.9656 -14.6363 -3.49754
633 1 7.16771 10.2385 11.7856
634 1 -14.3897 11.8588 5.11685
635 1 9.97868 -7.43662 5.6251
636 1 6.19087 -7.9422 1.6285
637 1 -2.8654 13.8326 -0.0226593
638 1 -13.5766 -1.66646 2.85661
639 1 -3.28007 -3.02679 -5.78848
640 1 8.10867 14.7049 -7.58381
641 1 -2.09291 -0.762203 3.55252
642 1 2.33471 -0.012229 -4.17392
643 1 -0.383681 6.70763 14.0166
644 1 -0.799521 12.0945 -4.54227
645 1 -7.23943 9.82678 -8.01937
646 1 -3.72892 -13.7841 2.27065
647 1 7.76858 9.20346 -2.00027
648 1 -12.112 -7.42835 -1.19666
649 1 -10.3488 -0.605874 0.593768
650 1 -9.26987 2.19223 6.94241
651 1 12.7407 -9.46815 -4.15888
652 1 8.03757 -6.11158 -12.0614
653 1 14.045 -3.19651 7.7963
654 1 1.511 2.07408 0.917757
655 1 -1.17882 12.3077 -13.0947
656 1 3.44445 8.72241 7.9898
657 1 1.96532 -10.2701 -10.1748
658 1 0.432751 -7.73527 5.1517
659 1 6.51639 14.2551 -4.97056
660 1 14.0568 -0.706089 0.266798
661 1 10.4689 0.873256 6.28251
662 1 -4.39786 -9.74275 13.8812
663 1 7.59298 -11.5235 4.69198
664 1 12.8637 -5.25135 -0.978159
665 1 -3.73893 -10.4095 10.7111
666 1 -0.823023 -12.0324 -2.16462
667 1 12.4723 -1.2082 5.31801
668 1 -11.6572 -7.3884 -13.0498
669 1 -6.7186 0.935825 -0.0660725
670 1 2.78226 -13.1967 -6.19201
671 1 8.40665 -7.65511 -0.325078
672 1 -10.5406 -9.37596 -3.09473
673 1 -4.31921 2.85154 -9.82405
674 1 -9.54825 -7.03123 -4.53205
675 1 -4.21797 -6.64736 6.58588
676 1 10.4754 11.0939 7.44308
677 1 -3.14946 12.42 6.40871
678 1 -9.44527 -13.2629 6.84373
679 1 -4.96341 14.6006 -12.0411
680 1 -13.8868 13.9307 14.0294
681 1 -9.72003 -14.3772 13.7618
682 1 -5.83866 3.28197 -2.1426
683 1 -5.93745 -1.06206 -2.48867
684 1 -2.23952 -4.89003 0.736356
685 1 -4.72414 -0.218584 -9.62259
686 1 12.835 10.0753 3.93922
687 1 10.8831 -11.0759 -9.10558
688 1 -14.4914 -8.75125 10.8141
689 1 -2.38963 13.0022 -10.3095
690 1 -14.389 10.8629 1.8853
691 1 -13.6051 8.90214 4.46085
692 1 -14.2394 -7.51069 4.18846
693 1 11.381 3.20074 7.62344
694 1 -12.0916 11.7293 -3.4911
695 1 -2.46244 -4.34453 7.39621
696 1 2.47579 6.69441 14.5253
697 1 -14.2014 13.9453 -1.58316
698 1 -13.9752 -8.65524 -10.8333
699 1 11.1256 14.1442 -0.882893
700 1 -9.00811 -0.705762 -8.8997
701 1 -8.25748 7.92469 10.4532
702 1 8.42574 -8.97938 -13.1149
703 1 2.99181 5.6765 -3.8696
704 1 0.670999 -6.62109 -3.68632
705 1 -3.31702 0.945757 -3.04554
706 1 12.4725 10.9791 -12.4185
707 1 -11.4094 -9.7982 0.684716
708 1 -6.76794 -8.03675 7.2516
709 1 0.0429611 -14.0235 -4.99987
710 1 6.80779 -2.10727 -12.886
711 1 -9.10467 -11.6598 0.448465
712 1 -12.8146 7.51429 10.5353
713 1 13.9169 -9.34283 13.6226
714 2 -9.6286 13.8114 -13.2624
715 2 -7.24982 7.79642 -10.9499
716 2 -3.91532 4.65576 7.48232
717 2 3.44569 12.4469 6.64478
718 2 10.7651 -5.45743 10.1132
719 2 7.31122 1.77203 -6.10404
720 2 -1.96328 -0.333792 -9.67325
721 2 -9.19994 9.13437 3.82492
722 2 2.10943 -2.94345 5.63887
723 2 12.3956 3.6822 1.03097
724 2 -2.18633 9.71995 -5.67032
725 2 1.90136 14.1939 2.09
726 2 3.73269 8.74987 0.685931
727 2 2.32123 3.75664 10.1661
728 2 -13.0127 -2.57563 8.65144
729 2 -14.5812 -2.4895 5.31717
730 2 -1.97052 -3.60685 3.47791
731 2 14.6275 -12.1117 5.33779
732 2 0.781904 -7.40233 -13.1327
733 2 2.00952 -2.88012 12.2488
734 2 -13.7859 -9.14943 -13.4964
735 2 2.27069 -3.70547 9.97128
736 2 14.2226 7.48911 9.20521
737 2 -6.85907 -13.767 -8.78152
738 2 -14.3722 3.15845 4.14692
739 2 3.62106 11.2822 9.07202
740 2 -11.229 12.8705 13.9466
741 2 -13.0856 14.4353 4.8684
742 2 -4.2185 -2.92513 1.51332
743 2 -0.534405 -3.30666 -13.4437
744 2 -14.1288 -14.0054 -8.44595
745 2 13.6524 -11.6065 1.33655
746 2 -5.69746 7.63272 -9.06737
747 2 -2.87487 -11.0145 5.63227
748 2 -0.438155 -12.6258 6.75696
749 2 5.54752 -10.41 2.54706
750 2 -7.98763 2.3128 11.5062
751 2 9.58674 -9.49856 9.38023
752 2 -11.9227 -4.24164 -10.2873
753 2 -9.61497 -11.629 14.454
754 2 -12.9171 -10.2191 5.88924
755 2 7.31142 -10.2327 8.98571
756 2 -8.53672 4.80608 5.68343
757 2 4.46544 -2.91494 6.43202
758 2 -9.66603 -8.25993 5.97379
759 2 -1.56832 7.18393 0.541145
760 2 2.72642 -14.4153 9.01459
761 2 -0.337651 12.8046 13.5876
762 2 -8.39888 -2.39855 1.18524
763 2 -8.43334 1.90768 4.28353
764 2 9.01005 0.305369 11.1783
765 2 -9.09943 5.88175 -11.3732
766 2 -11.5041 -5.32772 -3.50001
767 2 -4.45255 -14.0349 14.6736
768 2 -12.0335 3.14972 -8.15662
769 2 4.1033 -5.64021 10.0245
770 2 5.39079 6.52065 -10.7903
771 2 7.49803 5.20165 -3.23498
772 2 12.9216 0.13881 2.83625
773 2 10.7671 14.6665 -6.58318
774 2 8.15068 5.84204 -7.13446
775 2 -5.49632 -7.91529 -6.73786
776 2 10.9639 -4.84198 -11.0124
777 2 13.9544 -11.3718 11.3226
778 2 1.26306 3.16748 3.47404
779 2 -4.25452 -4.60457 3.36358
780 2 3.93868 13.8508 -5.89449
781 2 11.4172 -2.88651 7.28263
782 2 -4.0396 6.22704 -6.43119
783 2 3.55176 -1.76671 2.30474
784 2 10.8095 6.07031 7.30315
785 2 11.345 -4.70452 -6.17635
786 2 4.66325 12.4373 -4.1189
787 2 -11.1889 13.4625 -1.24108
788 2 5.4021 9.63744 9.94399
789 2 7.48255 -10.5954 -4.74162
790 2 0.319229 -3.8889 0.691604
791 2 -4.1121 -12.283 12.8775
792 2 7.57609 -4.03236 -7.69806
793 2 2.59928 9.48529 -14.6288
794 2 9.55323 -14.6818 -2.91758
795 2 -4.36163 -8.4629 8.88057
796 2 4.3204 -0.718196 -2.29018
797 2 -9.54179 11.7384 -8.11659
798 2 8.8658 0.296359 1.5715
799 2 -13.3114 -1.48752 -12.6709
800 2 -4.3397 -2.85469 -8.80693
801 2 5.35023 4.56582 -8.57522
802 2 -6.00773 7.14629 14.389
803 2 -6.5728 4.10776 7.15241
804 2 9.76574 -1.99205 5.78527
805 2 -12.8231 -12.1006 -4.08555
806 2 -13.7461 6.18858 5.69334
807 2 4.16864 -3.50352 -12.8993
808 2 4.33424 -5.22686 -8.73592
809 2 -7.96685 -5.69716 -11.1159
810 2 13.4271 4.44636 3.09897
811 2 14.1614 11.2065 -10.2025
812 2 -13.9408 13.9833 1.06785
813 2 1.72881 4.7304 1.01976
814 2 -1.47032 -5.68471 -1.78305
815 2 -12.21 -4.65606 -1.16847
816 2 10.0354 -4.68568 6.07924
817 2 2.11682 4.74792 -13.0145
818 2 -8.61773 11.7376 -5.84717
819 2 -13.0339 -3.31572 -3.24337
820 2 -0.871388 -11.1399 -10.4164
821 2 -8.22287 0.595002 -13.8923
822 2 7.79156 5.56279 14.6742
823 2 4.07016 -0.210341 0.11506
824 2 9.67855 7.85405 -9.44626
825 2 13.5743 7.40859 6.83867
826 2 4.80453 13.4419 8.62006
827 2 -5.69265 5.00559 3.08941
828 2 -1.90365 -7.8536 0.714491
829 2 -11.4982 -5.19588 -7.94766
830 2 -13.7 -12.8818 0.722622
831 2 -3.00543 3.85768 -2.60008
832 2 11.6152 -5.68338 -8.75486
833 2 -12.0359 -7.19708 -9.54142
834 2 -8.14645 -6.66516 5.15162
835 2 -4.25469 -10.5554 7.56733
836 2 -2.78837 -6.4934 2.67354
837 2 13.7025 -14.0166 -13.9214
838 2 4.25619 -3.8925 11.8035
839 2 -6.98237 11.2741 3.69275
840 2 7.50064 12.5162 13.4856
841 2 -13.0243 -1.11466 -1.56396
842 2 -1.62153 9.14463 -1.30173
843 2 11.9915 -0.059598 -1.35964
844 2 4.35916 -1.86926 -6.03486
845 2 3.19183 12.5675 0.962681
846 2 13.4321 -14.4202 12.6298
847 2 -10.1517 11.4195 -13.6154
848 2 -2.55002 -12.3614 -4.31122
849 2 8.5044 -9.44211 -9.02403
850 2 10.7167 4.77522 -13.8088
851 2 -8.27573 -2.42801 11.5573
852 2 9.01735 -12.3698 -13.2336
853 2 7.30463 -11.9771 7.45253
854 2 -12.9702 0.291886 13.1084
855 2 -7.42431 -13.7093 -3.08265
856 2 -12.7821 11.1799 7.28776
857 2 -4.9782 6.52148 -12.9188
858 2 -5.85609 8.53774 6.27984
859 2 -8.48386 10.1445 -11.7255
860 2 -5.41561 -13.4952 -4.61517
861 2 9.74654 14.6618 -13.4328
862 2 -12.9465 1.44869 -4.05265
863 2 13.958 -3.45995 0.967954
864 2 13.8468 -12.2556 13.6048
865 2 9.36043 -4.80599 12.1292
866 2 13.0412 5.379 -0.761611
867 2 -10.741 -9.09078 -10.8374
868 2 1.66267 10.3567 6.74644
869 2 6.47044 11.9193 9.44441
870 2 2.05938 -5.47336 5.13083
871 2 -4.48298 10.1053 -4.61984
872 2 3.07028 -8.65943 -12.8338
873 2 11.8745 -5.21655 7.78845
874 2 0.556418 13.0678 -9.29059
875 2 -12.1266 -5.34487 1.5566
876 2 -0.80566 -6.5447 12.139
877 2 -2.95507 6.71182 12.4226
878 2 6.28157 3.55397 4.50515
879 2 11.6347 -3.21392 9.62289
880 2 13.6683 -4.43147 -6.77961
881 2 -6.23474 -1.84454 0.358449
882 2 3.68477 3.95823 2.43257
883 2 9.3774 2.9399 11.3907
884 2 -11.3616 8.41303 -4.72788
885 2 -12.7143 10.1466 9.52745
886 2 11.3856 6.96051 0.325103
887 2 2.00428 -12.2183 6.44809
888 2 11.9345 -2.6575 -11.9668
889 2 -7.38033 -0.418074 2.2588
890 2 -4.57329 7.22489 3.80376
891 2 -2.81804 2.47352 10.9615
892 2 -11.5053 -12.16 1.91739
893 2 -4.55322 -2.26761 -11.4932
894 2 1.77328 -3.67005 -13.0309
895 2 3.41299 10.2951 11.2692
896 2 -2.65752 10.3593 -10.3466
897 2 8.02073 -10.2442 2.11357
898 2 -12.9833 11.8792 -11.1137
899 2 10.6535 4.61401 -0.407228
900 2 -8.41512 -0.959654 -1.12721
901 2 -6.8319 -6.82458 0.051466
902 2 -12.0751 13.6701 -13.1083
903 2 -6.94335 8.36718 4.13134
904 2 -5.09531 -5.63454 1.35674
905 2 4.53186 14.7133 11.4536
906 2 7.95637 -6.25823 4.0145
907 2 -2.2567 -6.67735 13.9663
908 2 -8.3481 6.65886 -9.11335
909 2 6.26136 11.344 4.66031
910 2 -8.75452 -1.57355 -12.0202
911 2 5.93619 0.225766 4.66118
912 2 -2.32176 -1.47386 7.76912
913 2 -12.8354 12.9067 2.92709
914 2 0.597227 12.7515 10.8784
915 2 5.37035 -14.394 -7.52028
916 2 13.2379 -10.9368 -10.9139
917 2 -6.59971 -14.0594 12.8821
918 2 -11.3651 1.23145 -9.65456
919 2 2.64924 -10.0985 5.67159
920 2 -6.19836 -11.4631 11.6889
921 2 -2.07756 9.25698 5.72868
922 2 2.77841 -1.45618 10.2056
923 2 -7.60817 -8.15449 -2.80081
924 2 -12.4539 -1.062 -4.11346
925 2 -2.85803 -0.0128536 -5.50687
926 2 7.51372 8.13781 -10.5343
927 2 5.21248 2.18929 9.19915
928 2 3.40387 -10.3521 -14.5009
929 2 -5.92248 -3.8581 11.5426
930 2 11.3544 14.4273 4.59871
931 2 1.0507 -8.46228 -8.33818
932 2 -0.0191917 3.53554 -6.13531
933 2 0.861606 -14.3799 -7.74907
934 2 7.92167 6.15104 8.42086
935 2 7.32893 -12.263 -8.38417
936 2 6.15419 3.34156 14.4039
937 2 7.85032 4.18529 -5.40496
938 2 0.266791 2.71415 8.17268
939 2 12.5468 -11.4051 6.64005
940 2 -3.26808 14.2492 -7.86054
941 2 1.01216 -1.1481 -12.8184
942 2 6.43991 -2.94896 12.164
943 2 8.05997 8.24837 -7.43862
944 2 -9.83508 10.4056 -4.19038
945 2 2.8494 -14.6836 -0.679605
946 2 -9.33407 8.07773 -12.3788
947 2 -8.82076 -12.6464 -12.8569
948 2 0.568574 4.39919 6.15228
949 2 9.66944 -12.0468 2.45263
950 2 -9.65201 -7.94202 12.3504
951 2 9.83005 -12.6313 -7.20685