C300 60 min Zr-Cu-Al HRMC model, hand rescaled to 10K volume

    1425 atoms
     3 atom types
-14.7233 14.7233 xlo xhi
-14.7233 14.7233 ylo yhi
-14.7233 14.7233 zlo zhi


Atoms

1 1 -4.94897 -12.9388 -3.96307 
2 1 -11.3898 3.12786 -0.167963 
3 1 6.62711 9.14651 -0.948362 
4 1 -0.345598 6.84885 1.19129 
5 1 -9.54251 8.44965 6.1843 
6 1 6.00086 0.435239 11.7851 
7 1 -7.23598 3.50014 6.29866 
8 1 -12.3209 0.85991 7.897 
9 1 8.21457 7.61726 1.32642 
10 1 -1.05258 2.35796 -12.5259 
11 1 14.341 -7.46342 -9.76803 
12 1 8.45959 6.44799 12.3289 
13 1 4.11367 -12.8158 10.9226 
14 1 10.4536 12.787 -2.42838 
15 1 -7.08372 -9.29407 3.82532 
16 1 -10.1716 0.316156 -1.59394 
17 1 -11.6892 -11.3061 -7.36452 
18 1 -1.55192 -0.407328 -10.7497 
19 1 12.4246 -3.8063 1.20886 
20 1 -10.3276 8.98101 -2.76466 
21 1 -13.7178 -7.14455 7.83616 
22 1 -5.51135 12.9064 -6.84163 
23 1 10.9241 14.0601 14.2172 
24 1 4.06889 -4.88413 -3.53735 
25 1 6.0158 1.21771 -11.4322 
26 1 -7.59553 -9.22891 -10.0819 
27 1 11.3901 2.13483 9.60378 
28 1 -13.897 10.4466 1.03766 
29 1 0.208656 10.0071 4.60787 
30 1 12.1849 6.94238 -6.8065 
31 1 -0.37007 -2.77056 -4.54918 
32 1 1.5808 -7.24447 -9.92561 
33 1 -11.041 -5.65734 -2.8061 
34 1 12.108 13.2166 -5.34462 
35 1 2.36051 -12.1867 6.03128 
36 1 -0.197356 14.1332 -13.0854 
37 1 -11.4879 -13.0446 -12.4064 
38 1 -7.46549 -12.7397 -2.63997 
39 1 -2.10966 2.07171 8.42236 
40 1 13.4349 0.188756 8.54638 
41 1 9.31005 -7.21363 14.1962 
42 1 8.54873 7.30893 -1.89375 
43 1 -11.3735 -13.6732 -1.06249 
44 1 1.21056 -5.25615 -2.39071 
45 1 11.3012 -13.4272 6.10829 
46 1 11.1067 -11.2045 -3.9375 
47 1 2.54297 5.44723 0.2336 
48 1 11.1086 8.42887 2.48825 
49 1 3.91288 -14.1801 0.468564 
50 1 10.2562 0.742087 -6.89878 
51 1 -12.6654 4.58453 -4.63535 
52 1 3.18954 -14.5034 -13.4033 
53 1 -13.3281 0.493572 10.5396 
54 1 -1.95419 11.7885 -7.54383 
55 1 -1.96193 -14.6764 5.23298 
56 1 14.1631 9.36808 3.52329 
57 1 11.9365 1.66011 -4.59157 
58 1 5.44715 -2.11761 -2.09668 
59 1 -9.72847 -6.46613 6.10586 
60 1 2.16315 -7.55228 7.64635 
61 1 -12.9685 -8.12951 -7.53635 
62 1 -4.42859 5.26839 -11.0624 
63 1 6.04902 -13.824 5.30398 
64 1 11.9027 -1.17262 14.6236 
65 1 -1.63296 -5.7366 -1.94938 
66 1 -9.08884 -7.4139 12.5857 
67 1 -7.373 13.6838 3.96768 
68 1 -4.31174 0.674927 -5.64131 
69 1 0.405731 12.8482 13.4074 
70 1 0.247184 12.3969 6.23028 
71 1 11.4254 1.24381 12.6159 
72 1 -6.321 -6.69325 13.3958 
73 1 -2.23677 -0.565892 -7.6029 
74 1 10.2488 3.97052 5.64629 
75 1 11.2633 -12.8081 1.60496 
76 1 9.48079 4.07783 8.37561 
77 1 -2.63098 -5.86045 2.00626 
78 1 12.9205 -13.5569 11.5454 
79 1 13.0327 -10.3055 -6.33207 
80 1 -3.71853 2.00225 -11.0029 
81 1 -10.655 0.97061 -4.78717 
82 1 -10.0418 10.3722 -5.69843 
83 1 -9.69749 1.13793 7.03131 
84 1 3.7318 7.26104 -4.33972 
85 1 -0.572206 13.7144 -9.67202 
86 1 -9.58022 -1.76185 11.4061 
87 1 -8.10918 -11.0751 -7.66043 
88 1 -12.2159 12.8825 0.423959 
89 1 1.81215 -2.45317 -2.58687 
90 1 -0.628252 9.3413 -10.069 
91 1 -1.93663 7.81472 4.00924 
92 1 0.317427 2.97514 -7.06046 
93 1 1.93272 12.043 -13.3653 
94 1 13.9304 -10.2354 -11.1929 
95 1 -5.89752 3.23235 -14.5564 
96 1 1.7429 3.21503 -13.5639 
97 1 -0.553258 -8.97623 -11.1318 
98 1 -5.88961 0.900617 -1.63847 
99 1 2.12723 -5.12969 2.65288 
100 1 -12.4567 -9.80349 -10.5519 
101 1 -7.28396 4.30887 -2.71638 
102 1 -6.89678 -7.40188 -13.0972 
103 1 -2.53388 -7.66105 -9.8629 
104 1 5.28001 14.3109 -11.3103 
105 1 -10.2274 3.36 -3.01284 
106 1 1.24649 -13.0919 -8.03638 
107 1 -13.9577 -10.3878 7.0728 
108 1 -2.70441 6.41735 13.8025 
109 1 13.4357 -11.886 8.90518 
110 1 1.41 0.0979929 -0.771128 
111 1 -13.637 7.30238 -3.48896 
112 1 13.6002 -2.07989 -12.748 
113 1 -0.836086 5.44 -4.72902 
114 1 1.23524 -11.9179 11.5539 
115 1 -11.6265 3.89143 2.89291 
116 1 -12.815 1.72929 -2.67651 
117 1 -7.36357 10.6842 2.24795 
118 1 -13.8606 -5.43245 -5.72708 
119 1 -6.26383 -5.58214 -2.92438 
120 1 2.28591 0.094245 7.71171 
121 1 13.2763 -7.07901 -6.99747 
122 1 5.84384 8.93793 10.258 
123 1 8.9083 -6.45853 -4.60997 
124 1 1.24118 0.204482 14.3979 
125 1 6.6717 -1.89435 -5.1922 
126 1 10.5552 -6.2856 7.28037 
127 1 7.53234 8.56951 -6.95439 
128 1 6.08278 -2.45286 6.43855 
129 1 -8.79239 8.26765 9.60709 
130 1 13.1207 8.78046 0.201802 
131 1 -12.0556 -12.0726 13.7619 
132 1 9.01537 -9.35367 -4.89301 
133 1 6.08728 -10.6942 -5.08796 
134 1 -13.0966 -14.531 -7.70048 
135 1 8.38797 -10.125 12.7812 
136 1 -9.98839 -8.13225 -7.59544 
137 1 -3.41055 3.80905 13.4767 
138 1 -12.3976 -3.98429 2.31612 
139 1 -4.77132 -12.1465 2.31124 
140 1 9.43541 11.2562 -7.85104 
141 1 -1.22699 2.19798 14.0866 
142 1 -7.67869 -1.46926 -2.49685 
143 1 8.37 -14.2995 -10.7136 
144 1 4.67754 7.58894 8.09201 
145 1 -7.78739 -6.73982 -8.12395 
146 1 11.2323 -3.83173 -13.0897 
147 1 -8.39562 1.37882 13.4876 
148 1 13.6575 10.035 10.1309 
149 1 4.67026 -6.63915 4.12408 
150 1 11.593 8.24996 11.5427 
151 1 5.31317 -1.62451 -10.2189 
152 1 6.50453 8.42544 -4.00501 
153 1 -2.28896 -10.4346 1.94154 
154 1 -7.14298 -4.01943 11.1949 
155 1 3.9047 -8.34336 13.9092 
156 1 12.8353 -3.62582 4.12531 
157 1 13.4622 -5.47025 6.44861 
158 1 2.96591 13.6782 11.2266 
159 1 1.10337 -7.99825 -0.676908 
160 1 10.9482 -6.94924 -2.48694 
161 1 11.6369 10.6535 5.04152 
162 1 -5.26398 -3.15984 -1.28095 
163 1 6.22576 -6.1933 14.3745 
164 1 5.06563 13.8026 -8.46178 
165 1 -9.22517 -9.70962 1.73392 
166 1 12.5265 0.992572 -11.5014 
167 1 -7.29959 10.7745 5.28518 
168 1 11.4634 -9.48711 13.3496 
169 1 -13.9924 1.33288 -7.91679 
170 1 -5.33865 4.23797 10.9139 
171 1 13.7277 4.80682 10.3405 
172 1 10.2284 14.51 11.3994 
173 1 5.70545 5.8079 11.3596 
174 1 4.81298 -11.6503 1.31474 
175 1 -6.22366 -8.71592 -6.53879 
176 1 -6.48429 5.67788 -5.31102 
177 1 11.3591 4.89389 2.70745 
178 1 -11.389 13.121 -12.4876 
179 1 14.6213 -8.30971 2.54277 
180 1 -3.2293 7.78812 0.873658 
181 1 9.37564 11.7456 -13.5172 
182 1 7.31788 3.77582 -8.11527 
183 1 -13.5881 -12.5526 -10.0012 
184 1 0.683005 -11.4027 -10.8626 
185 1 -8.28285 2.16459 10.7772 
186 1 -10.4746 -1.6187 3.63291 
187 1 3.99624 1.9821 14.2751 
188 1 -0.679079 12.0914 -0.473515 
189 1 7.92914 13.8008 -7.06348 
190 1 -8.07844 -6.51479 3.60859 
191 1 11.1321 13.6167 3.09074 
192 1 3.9871 2.75299 11.2567 
193 1 -0.664609 -10.5467 -0.900633 
194 1 11.1643 11.4685 11.8807 
195 1 -4.41681 -9.7038 -8.48174 
196 1 -0.556014 14.0187 -3.28374 
197 1 8.45762 -6.80831 -0.747431 
198 1 -0.905718 -14.6104 8.00362 
199 1 -11.6348 2.73806 -6.94928 
200 1 -4.57231 -0.728095 -9.66212 
201 1 -5.89251 -5.36521 1.48556 
202 1 5.79135 3.38842 1.87972 
203 1 -3.48222 -6.16471 4.6267 
204 1 5.58948 -11.0534 13.034 
205 1 -6.6782 3.32659 -11.745 
206 1 4.95534 -12.7497 7.85251 
207 1 9.3742 -4.18773 -1.22208 
208 1 -6.15905 -5.77324 5.70967 
209 1 9.69613 -12.6589 -13.1195 
210 1 -5.34947 13.0727 -9.8704 
211 1 2.9039 10.0738 8.80999 
212 1 0.71229 -2.75279 0.505827 
213 1 -4.57208 8.80073 6.26812 
214 1 -4.13749 -6.17583 -0.678098 
215 1 11.4241 8.09961 -14.6664 
216 1 -12.5835 -2.34186 12.4181 
217 1 8.42958 12.9958 12.9629 
218 1 -4.3442 -5.13614 -5.77554 
219 1 1.96567 7.1949 -13.6574 
220 1 -10.1403 11.1637 10.875 
221 1 1.3649 -7.94638 -3.91939 
222 1 -2.65876 -9.56603 5.45714 
223 1 -0.587749 8.49084 12.4513 
224 1 -6.58514 1.44988 -7.52326 
225 1 -10.4929 9.91329 -9.68124 
226 1 2.87819 0.276339 -9.76518 
227 1 -3.49616 10.7163 -5.48713 
228 1 1.46065 -9.61074 -13.6361 
229 1 0.62423 -8.84942 5.04112 
230 1 -8.87722 -3.95002 2.30533 
231 1 0.127712 13.8069 -6.42544 
232 1 8.30417 -8.65556 7.53724 
233 1 6.95552 5.69372 -5.95205 
234 1 -12.5313 6.11812 13.034 
235 1 0.00784874 -6.99436 -12.9008 
236 1 3.5556 5.38816 10.2329 
237 1 7.81085 0.899467 2.1513 
238 1 -3.27708 -14.5145 -10.8487 
239 1 0.183081 5.40804 -9.22913 
240 1 -9.4806 5.39294 -4.92947 
241 1 6.97216 0.560868 5.31643 
242 1 -13.9831 -11.7078 -0.751044 
243 1 -0.263849 9.84418 -2.92815 
244 1 1.1785 12.7121 8.85654 
245 1 6.14686 0.715409 -3.40179 
246 1 14.489 7.54592 -8.94244 
247 1 11.1048 13.9492 -8.02616 
248 1 -9.2429 12.8916 -14.3268 
249 1 5.22259 -7.18637 -11.7715 
250 1 12.4725 -12.7756 -1.38888 
251 1 -3.21187 1.79611 0.0799236 
252 1 1.29863 -10.0661 -5.70836 
253 1 -8.05716 10.4476 -2.95974 
254 1 6.97295 3.25017 9.993 
255 1 8.70399 0.635065 13.3253 
256 1 -12.4368 10.3349 -12.9504 
257 1 1.75076 -14.1134 13.6462 
258 1 0.452375 5.33765 -1.62911 
259 1 -13.5217 4.93155 -1.62162 
260 1 10.2618 -10.9782 10.7491 
261 1 1.96081 2.65668 -2.37346 
262 1 12.6943 8.85783 7.17058 
263 1 -14.1336 14.5093 -12.1293 
264 1 11.7189 1.11024 -1.76157 
265 1 10.9014 6.63637 -0.000146866 
266 1 -11.9889 1.17812 4.70938 
267 1 -11.4979 -14.482 -5.28402 
268 1 -2.5195 11.9791 4.35218 
269 1 -4.63283 -1.01026 8.13192 
270 1 -13.9995 8.8003 7.97042 
271 1 -2.64062 -3.14463 -14.0932 
272 1 8.10716 1.14978 -9.24526 
273 1 -14.7195 1.8312 6.36417 
274 1 8.74787 4.35239 -1.69844 
275 1 -4.23596 11.4638 11.6076 
276 1 2.35988 -10.9051 3.16106 
277 1 -2.36016 6.7256 10.8106 
278 1 -11.4427 -9.13405 -4.9086 
279 1 1.47323 2.82935 9.06935 
280 1 3.77003 -7.0141 0.785853 
281 1 14.3498 7.03001 -14.4538 
282 1 -0.430393 -2.94016 7.52888 
283 1 -14.1861 -11.8974 -13.2069 
284 1 -3.83912 -9.23387 13.2984 
285 1 4.51204 2.6234 8.15652 
286 1 13.1358 -14.1412 4.1241 
287 1 8.58053 1.02607 -1.78522 
288 1 -2.14275 1.82451 5.11436 
289 1 -4.81462 6.50736 3.59327 
290 1 10.2023 -2.19336 3.62543 
291 1 -1.96459 12.6271 9.85967 
292 1 14.6034 -10.5145 -3.49176 
293 1 4.68332 9.94981 -5.91253 
294 1 -14.4249 -13.7234 -2.81636 
295 1 -6.00338 8.6024 -6.24313 
296 1 7.95609 3.8998 -11.0905 
297 1 5.98973 14.1245 -14.4313 
298 1 9.5633 8.80606 -12.3693 
299 1 4.93728 -11.1568 4.69123 
300 1 0.691872 -13.0166 -4.91467 
301 1 -10.486 -1.56381 -4.48289 
302 1 12.2385 -0.667975 2.7203 
303 1 9.34312 3.45481 11.738 
304 1 6.83772 -12.9986 -0.724615 
305 1 7.90448 -13.393 13.7488 
306 1 14.3961 12.6587 -7.51301 
307 1 -7.89621 5.65867 4.35625 
308 1 11.3816 7.25507 5.04927 
309 1 -10.1002 -1.74198 14.4615 
310 1 -8.79035 -4.05477 -4.12382 
311 1 -13.5051 4.04722 5.05598 
312 1 5.63226 10.5677 7.54037 
313 1 7.3774 -11.2787 2.79546 
314 1 7.88445 3.48109 4.18483 
315 1 -3.66021 -10.7368 10.4678 
316 1 10.1662 0.830762 0.77059 
317 1 -13.0178 -2.83788 -13.8059 
318 1 9.88543 10.0624 0.0881481 
319 1 -7.1254 10.2905 -13.6189 
320 1 -8.10957 -4.06843 -0.661477 
321 1 -7.15135 7.97819 7.82623 
322 1 -3.28576 -14.5359 -1.91205 
323 1 -11.2234 -8.68632 7.25018 
324 1 8.68309 4.90399 1.39909 
325 1 3.65163 0.301335 -12.9312 
326 1 -1.71196 7.0539 -2.06081 
327 1 7.20876 10.3859 1.76503 
328 1 -2.62892 -3.12904 12.0932 
329 1 1.50917 -14.0904 -11.009 
330 1 7.31636 -12.9462 11.3238 
331 1 11.0629 -6.68088 -9.43011 
332 1 -7.06671 -13.8192 1.55125 
333 1 1.79916 -9.89651 -8.60437 
334 1 5.09905 1.3026 -8.36808 
335 1 12.4495 -7.29615 -14.3833 
336 1 -4.42928 4.0221 7.73273 
337 1 -5.19233 12.7177 9.24266 
338 1 9.31401 1.06156 7.3859 
339 1 1.59532 9.84272 13.8075 
340 1 3.45234 -14.0363 3.58809 
341 1 -7.91736 -3.96389 14.422 
342 1 -12.9545 -9.60122 12.6786 
343 1 -0.661712 7.43697 6.57038 
344 1 -5.19053 13.3679 -4.00238 
345 1 6.58238 8.28783 -11.1113 
346 1 -14.4659 -4.4478 -10.9364 
347 1 14.3843 -14.179 14.3403 
348 1 0.667547 11.1079 10.997 
349 1 2.05308 10.877 -0.170096 
350 1 -13.59 -1.45542 -10.5973 
351 1 -6.6228 -3.3044 7.8965 
352 1 -11.7259 -2.10196 9.36468 
353 1 -12.0101 3.90259 7.92874 
354 1 -10.9707 -1.86806 6.43096 
355 1 7.89343 -6.4332 -10.2616 
356 1 9.73576 -9.68902 -13.6106 
357 1 -4.46744 1.3018 6.60372 
358 1 12.3557 -12.3319 -8.5216 
359 1 -6.94424 -9.67843 11.6682 
360 1 6.2532 -13.5183 -6.40566 
361 1 9.86698 0.884662 4.31511 
362 1 -11.9277 -6.64724 -10.327 
363 1 10.7996 -12.3242 13.4826 
364 1 -6.00575 2.42337 -4.35091 
365 1 11.4188 -4.59092 14.1616 
366 1 -13.1416 9.43668 13.4142 
367 1 -14.017 4.70158 -7.73262 
368 1 12.833 6.48124 -11.9667 
369 1 3.09319 -2.23493 2.17146 
370 1 -7.64424 8.44227 12.6563 
371 1 7.91623 -11.9349 8.69442 
372 1 5.50488 -10.7272 -2.17402 
373 1 -3.74093 -6.98475 -3.71652 
374 1 -2.1402 5.60381 -6.95466 
375 1 -9.71531 5.32815 10.4005 
376 1 1.37796 8.22822 -1.17604 
377 1 6.95674 -8.74668 4.5895 
378 1 6.04228 11.6063 13.7946 
379 1 -2.99795 11.2784 -10.1481 
380 1 4.07145 -2.05149 -4.5455 
381 1 -7.07823 -4.21695 -12.4397 
382 1 6.17647 8.46437 13.1246 
383 1 2.53947 2.54422 5.95187 
384 1 -6.43207 14.2812 -1.32666 
385 1 9.7783 -6.28663 -12.5822 
386 1 11.8565 -0.744035 11.0756 
387 1 12.9814 -3.71104 -5.30619 
388 1 6.81043 -7.19837 1.81578 
389 1 -4.60742 6.49613 8.77273 
390 1 -7.11578 6.25153 -0.412045 
391 1 13.6622 -0.505668 -6.0977 
392 1 -9.23196 -2.69376 -11.8794 
393 1 7.39277 -1.90336 2.84763 
394 1 -9.13835 0.565454 -11.0548 
395 1 12.8755 2.08256 1.09879 
396 1 -13.4907 -14.651 11.9585 
397 1 -13.364 -13.3535 3.99326 
398 1 0.723911 -8.96086 10.2897 
399 1 -3.85034 11.431 14.6764 
400 1 13.241 4.6557 5.4241 
401 1 -12.6679 -6.84283 4.69219 
402 1 -7.26912 -13.779 -5.66631 
403 1 -2.87191 -0.756092 -1.58942 
404 1 12.4554 13.9562 0.238911 
405 1 -13.3696 11.9754 -10.2028 
406 1 9.78981 -2.03779 0.76916 
407 1 12.1565 11.0159 14.5027 
408 1 -14.708 13.7122 6.48026 
409 1 -7.52313 -6.48256 7.99654 
410 1 3.4352 -12.2494 -4.1986 
411 1 4.3423 -7.43841 -8.66541 
412 1 4.18878 7.9271 -1.34424 
413 1 12.7999 1.97677 -14.3424 
414 1 9.663 7.43006 -4.92514 
415 1 -8.70117 11.1138 7.9665 
416 1 -10.3338 -11.189 7.90634 
417 1 2.89582 -11.4743 14.04 
418 1 10.7077 -1.55335 8.61656 
419 1 -8.75836 13.1729 -6.09875 
420 1 1.40216 12.1751 -2.76646 
421 1 -12.1315 6.39536 6.07814 
422 1 8.43285 -11.3812 5.65069 
423 1 -13.3957 10.1207 -7.83019 
424 1 -12.0289 2.80244 -14.5404 
425 1 -2.26772 -6.03025 13.794 
426 1 -12.4135 -4.92656 10.4689 
427 1 3.79359 2.9303 -0.35313 
428 1 -0.300147 2.69175 -4.04041 
429 1 -11.5786 7.09737 8.58391 
430 1 -14.2034 -8.78857 -0.272669 
431 1 -13.5606 -4.03791 5.39315 
432 1 7.05463 -4.5498 -12.6592 
433 1 -8.50283 -6.86113 -1.73775 
434 1 -11.0331 12.5135 -8.08065 
435 1 1.74701 -4.5754 -11.4002 
436 1 -0.0907421 0.135768 -5.83173 
437 1 3.76584 5.02618 13.8079 
438 1 12.5103 -9.82969 -1.56159 
439 1 -9.42589 13.5871 1.46228 
440 1 -4.2555 -9.81621 -4.45506 
441 1 -0.69385 9.06109 -5.5659 
442 1 9.83448 3.75083 -6.45781 
443 1 -2.779 -3.28142 0.182562 
444 1 -0.573045 -11.297 3.71533 
445 1 -13.0031 9.69965 -4.68801 
446 1 -9.90058 -13.809 -7.70718 
447 1 -11.5393 -4.85607 7.3617 
448 1 -11.6475 6.15926 0.712877 
449 1 3.73688 -11.972 -7.1215 
450 1 6.86501 -4.55616 3.96705 
451 1 -12.6394 -10.0235 4.66564 
452 1 -10.2318 10.3472 0.545009 
453 1 -5.54664 1.60631 12.2924 
454 1 8.76594 10.228 -3.52301 
455 1 -14.0627 7.53722 10.9116 
456 1 6.71347 3.22852 13.2241 
457 1 13.9021 -11.0699 3.82248 
458 1 4.68409 -4.69061 -10.0394 
459 1 13.0461 4.75452 -0.325428 
460 1 -3.46619 -11.4275 -11.3086 
461 1 -2.63324 12.0446 -2.83681 
462 1 -10.499 6.65693 3.8208 
463 1 -7.06408 7.66462 2.14742 
464 1 -9.5552 14.3467 12.3846 
465 1 -1.22979 -10.8534 -4.00863 
466 1 8.68181 -1.7887 5.84728 
467 1 3.44823 -4.84715 13.7659 
468 1 -7.66667 -0.484853 -5.35965 
469 1 -2.25254 6.78946 -10.0174 
470 1 10.805 10.6654 8.79771 
471 1 12.9064 8.05624 -4.05725 
472 1 7.74953 11.8121 -1.2067 
473 1 -9.06338 4.89726 1.47861 
474 1 -9.57046 -11.8399 -4.96331 
475 1 4.36646 -4.57087 -6.83923 
476 1 0.0280466 8.34064 9.51845 
477 1 -4.57824 -14.5248 13.8688 
478 1 -5.13764 -3.61185 13.2956 
479 1 2.73595 -2.40457 -14.153 
480 1 10.9728 5.56898 10.3531 
481 1 12.0364 -3.81464 11.3122 
482 1 -4.96787 -8.60871 -11.2603 
483 1 5.05083 7.25731 -13.573 
484 1 -12.1118 -0.877764 -7.23986 
485 1 -5.11984 8.28447 14.5397 
486 1 4.98897 -9.90528 -13.2551 
487 1 -11.6596 11.9647 13.1871 
488 1 13.0711 13.1374 10.0685 
489 1 -5.35902 -10.1792 -13.7542 
490 1 12.5047 -1.38816 -0.185465 
491 1 6.3933 -7.78554 -6.15613 
492 1 14.4997 7.19594 5.51852 
493 1 -14.5717 13.4453 2.26091 
494 1 -10.4939 -9.78524 11.1079 
495 1 7.25147 8.10112 6.16142 
496 1 -2.09528 -8.08426 11.1004 
497 1 -10.3394 3.82774 12.8426 
498 1 10.5535 -1.30453 -11.7369 
499 1 5.65591 0.489704 -0.112434 
500 1 -11.3634 -12.8524 10.8088 
501 1 -4.21727 -3.21289 -11.4435 
502 1 7.84933 6.5257 9.15966 
503 1 14.2834 -0.320049 12.8988 
504 1 0.417576 -4.66069 -14.2116 
505 1 -11.4001 9.94528 8.34142 
506 1 -10.3368 1.10669 1.81463 
507 1 3.11906 5.53331 -9.66255 
508 1 -5.03773 -5.98368 9.25052 
509 1 -12.4069 -9.57106 -13.5355 
510 1 2.23946 11.8395 -5.6904 
511 1 -13.2725 3.41691 11.7975 
512 1 -3.44653 7.56651 -4.94918 
513 1 10.9513 5.63352 13.5198 
514 1 -11.1932 8.25421 -7.45499 
515 1 -2.46419 -0.545601 9.96637 
516 1 14.4667 -2.07645 10.1899 
517 1 -14.0876 12.4418 -14.6524 
518 1 -0.253178 -2.6902 10.4443 
519 1 10.638 -10.8919 7.8221 
520 1 0.362179 -0.130062 5.6277 
521 1 2.8511 -7.31165 11.4992 
522 1 -0.609169 2.55184 -0.853328 
523 1 11.1311 9.06255 -2.12368 
524 1 1.3353 13.986 1.15792 
525 1 1.276 6.14815 12.8908 
526 1 1.02404 0.235621 -12.0175 
527 1 2.79316 8.73315 -8.56954 
528 1 -7.2582 -3.68695 -6.93595 
529 1 -0.563931 -11.6301 9.30628 
530 1 10.7987 -8.94611 5.60446 
531 1 2.33596 7.72952 5.8623 
532 1 12.0486 -8.41591 -11.8445 
533 1 4.58221 7.10023 -7.19717 
534 1 -9.44478 -4.32479 -9.20064 
535 1 -14.4146 2.33457 -5.13967 
536 1 -12.5492 9.17935 5.00504 
537 1 -4.95369 3.80726 -1.03207 
538 1 -11.7832 6.12511 -9.57654 
539 1 0.132917 7.78732 -7.57667 
540 1 -4.65196 9.4666 3.4566 
541 1 -11.9247 14.6925 14.5271 
542 1 -6.64215 13.3254 11.9971 
543 1 13.4883 6.37972 2.55781 
544 1 2.05105 -2.24482 -6.23842 
545 1 -5.39463 9.07034 -0.146087 
546 1 8.61759 -1.98619 -13.9594 
547 1 -12.654 8.35773 -0.92237 
548 1 -7.64252 12.8223 -11.7447 
549 1 -9.68976 12.9104 -1.41302 
550 1 1.40002 2.90564 12.6393 
551 1 -14.5023 3.45418 -12.4928 
552 1 -10.2721 3.75898 5.50504 
553 1 2.18289 0.342838 -4.13512 
554 1 -12.0387 14.439 6.0765 
555 1 3.04089 -6.77144 -13.1291 
556 1 -1.89511 -5.26533 10.3215 
557 1 1.67907 -5.17045 -5.43779 
558 1 -13.3617 -1.4941 4.48022 
559 1 6.53004 0.313887 -14.3053 
560 1 -1.1892 -5.80906 -5.05638 
561 1 -8.58129 2.92354 -5.78274 
562 1 11.4165 7.8957 -9.87087 
563 1 -12.154 -13.6393 1.51777 
564 1 6.28066 0.377007 8.34383 
565 1 14.1265 -13.1397 1.34599 
566 1 -0.0530548 -5.32215 0.428477 
567 1 5.61447 -4.80777 -0.782534 
568 1 13.831 -8.11094 5.18082 
569 1 -4.96668 -1.05139 11.3134 
570 1 7.19363 -8.40916 -9.27773 
571 1 -7.2383 -1.28624 13.2179 
572 1 -5.12899 -6.45238 -8.64002 
573 1 -5.02642 9.02706 10.0444 
574 1 -2.30399 13.1473 1.6184 
575 1 14.3016 -5.07775 -13.8008 
576 1 10.689 -11.1495 -10.6499 
577 1 3.31072 14.164 6.52292 
578 1 -9.55023 -14.5486 -3.41478 
579 1 -8.39403 -13.1081 6.09935 
580 1 12.3957 5.00072 -8.97711 
581 1 -0.916574 -0.215995 12.379 
582 1 14.0155 -11.4574 13.556 
583 1 6.7627 -4.34366 9.26534 
584 1 9.00859 9.02412 10.8524 
585 1 12.5567 10.1184 -7.71357 
586 1 10.0718 -3.61055 -4.12748 
587 1 -0.549493 -8.00242 -7.59029 
588 1 -6.41734 1.35004 4.38617 
589 1 -9.25581 -4.19371 9.23233 
590 1 13.6953 -0.819244 5.29876 
591 1 5.52658 3.73468 -13.195 
592 1 3.90138 10.8913 11.824 
593 1 -3.50478 -12.33 5.02333 
594 1 -5.96577 -13.7867 -8.38498 
595 1 0.533007 5.28304 10.1549 
596 1 5.29014 -7.88845 7.09311 
597 1 9.03917 -7.0663 4.21459 
598 1 -6.92596 13.5556 7.13844 
599 1 14.0761 -3.13643 13.3953 
600 1 -0.0125561 -14.6089 11.1293 
601 1 -6.19621 7.58291 -11.8629 
602 1 -1.61015 5.13384 8.32493 
603 1 4.22872 -4.92089 6.98526 
604 1 -10.3708 5.84775 -13.7639 
605 1 5.04809 11.0182 -10.6279 
606 1 7.6416 -10.7549 -11.2611 
607 1 -9.66862 13.3403 5.88775 
608 1 -12.5717 12.3431 -5.59721 
609 1 2.03937 -4.69887 11.1177 
610 1 -0.908149 -8.72409 14.0977 
611 1 -10.6806 -1.92527 0.556315 
612 1 -0.625602 -11.9646 6.35458 
613 1 -7.15068 0.494648 7.60352 
614 1 5.39333 12.5899 0.566105 
615 1 7.7547 14.2485 9.68947 
616 1 -4.83796 -13.9818 10.431 
617 1 0.814158 11.1102 -8.2437 
618 1 9.81367 -2.25983 12.6754 
619 1 -9.06618 -11.7756 12.8953 
620 1 5.07413 6.14303 5.34116 
621 1 -12.2856 11.0403 -1.96099 
622 1 -10.0109 -14.2545 8.52807 
623 1 -1.77778 -13.5591 2.29324 
624 1 7.3367 -5.81919 6.61648 
625 1 -4.30599 3.94864 4.6749 
626 1 -0.00849628 -4.84285 -8.01975 
627 1 1.57073 -13.8973 -1.75432 
628 1 -3.08609 -3.46151 -3.28848 
629 1 12.3993 2.07216 4.137 
630 1 6.79666 9.89263 -13.5033 
631 1 11.0191 10.2644 -5.27255 
632 1 5.80326 -10.3081 9.76219 
633 1 5.14548 3.19198 5.06795 
634 1 8.08871 12.9565 2.78805 
635 1 5.06466 0.520432 3.09253 
636 1 5.93592 5.62159 -0.147763 
637 1 -3.44407 -0.540049 13.8335 
638 1 -13.3946 -7.65006 -3.08884 
639 1 -4.98157 6.24578 -8.04207 
640 1 9.71449 -4.90157 2.26389 
641 1 -4.43224 -3.38268 -8.15929 
642 1 11.3605 -2.19848 -7.78182 
643 1 -7.25084 10.7321 10.634 
644 1 9.23443 -12.9239 -8.2239 
645 1 1.93304 5.64872 -6.62453 
646 1 -5.56151 -11.861 12.917 
647 1 -8.40017 -9.15155 9.24909 
648 1 -5.98985 -3.05316 -4.43367 
649 1 -11.4793 -0.972423 -12.3197 
650 1 -3.92056 -3.37679 6.30669 
651 1 6.14259 5.68131 -3.05702 
652 1 0.536249 2.83331 3.89927 
653 1 8.28452 11.8615 7.53646 
654 1 -6.25792 7.86547 -3.10243 
655 1 -7.16399 -0.717699 10.0937 
656 1 1.36002 0.169629 10.7757 
657 1 7.86576 -10.5704 -7.57729 
658 1 -2.77601 -5.85893 7.63389 
659 1 7.49138 1.28441 -6.10142 
660 1 -3.84806 -3.2566 3.20248 
661 1 8.71587 0.515939 10.2854 
662 1 1.91328 -13.7318 8.77163 
663 1 -1.78648 10.1384 2.12291 
664 1 -8.14939 2.40415 -0.361005 
665 1 -9.95996 -8.2027 -12.0467 
666 1 -9.95039 -13.7168 3.71704 
667 1 -10.9113 8.20532 11.5616 
668 1 8.5666 -14.3926 6.99092 
669 1 12.4792 -4.196 -2.01263 
670 1 0.958294 2.81351 -10.1887 
671 1 -11.9163 -11.9719 -3.54743 
672 1 13.0785 -4.65492 -8.37668 
673 1 -10.0558 9.32912 14.4406 
674 1 -6.31222 3.79322 2.15028 
675 1 -11.1804 -7.88932 -0.223907 
676 1 -3.42464 9.1797 -2.52289 
677 1 -2.63472 13.9368 12.2042 
678 1 9.08844 9.80412 13.6343 
679 1 12.346 -13.3184 -13.2676 
680 1 12.5633 11.3118 1.83003 
681 1 6.14826 -12.6068 -9.30457 
682 1 -8.19099 -9.17286 6.35244 
683 1 -3.91448 4.82663 -4.05018 
684 1 -5.11011 -8.34589 6.4609 
685 1 9.38464 6.11481 -8.17745 
686 1 -7.27639 11.6605 -0.246778 
687 1 14.7195 -2.50818 -8.10898 
688 1 7.81769 -1.66038 -0.35703 
689 1 -8.58123 6.58329 -7.73243 
690 1 9.03539 -13.8243 3.90109 
691 1 -10.1714 -6.86398 9.66414 
692 1 0.920036 -12.3268 0.821139 
693 1 -10.1057 -4.62262 12.488 
694 1 -7.84244 11.4168 -8.68511 
695 1 -7.80188 -0.987677 0.441493 
696 1 -9.53309 0.70015 -7.81787 
697 1 12.9035 3.81191 -6.46002 
698 1 8.77362 -1.66265 -9.23874 
699 1 6.3406 -14.1587 2.33229 
700 1 -3.00692 1.95624 -3.10159 
701 1 2.70667 8.16282 11.061 
702 1 -14.3231 0.288193 -13.3246 
703 1 10.4859 2.79668 -9.50729 
704 1 -2.84688 8.67263 -7.81026 
705 1 -7.72398 -1.44822 -9.09148 
706 1 10.9593 -11.3925 3.83065 
707 1 -6.72877 -3.55692 4.30142 
708 1 -11.0946 0.764567 12.3279 
709 1 -5.82982 -8.36929 -1.25481 
710 1 -2.66875 -5.92507 -12.478 
711 1 7.7831 -9.86562 0.197894 
712 1 10.657 -13.5451 9.22066 
713 1 12.9392 -8.70726 7.92721 
714 2 -1.67903 11.1452 12.8117 
715 2 -7.2867 -11.3041 7.85173 
716 2 -13.2208 -0.36764 -4.73613 
717 2 -9.41333 -13.7511 -14.4982 
718 2 8.04599 -1.78355 8.50811 
719 2 -1.89447 -2.84064 -9.25229 
720 2 6.98227 -13.2091 -12.7778 
721 2 -4.71949 11.7611 6.26897 
722 2 2.69243 11.0455 6.17624 
723 2 -13.2609 6.53801 3.24556 
724 2 7.13638 10.8377 11.6188 
725 2 -2.75204 -3.09359 8.83217 
726 2 -5.96449 6.04838 6.21325 
727 2 2.19354 -6.1641 5.33088 
728 2 12.9067 -10.692 11.2157 
729 2 9.32852 0.0924749 -4.30464 
730 2 -6.07477 -10.0105 1.28572 
731 2 7.07981 3.29268 -4.13023 
732 2 7.06552 13.2518 -4.23601 
733 2 -6.56429 -1.61215 -11.4455 
734 2 11.0962 -13.983 -10.4365 
735 2 3.28906 5.26372 -12.4238 
736 2 -2.16548 9.87903 10.4205 
737 2 -6.5901 -4.11796 -9.76904 
738 2 14.4715 -12.981 6.42182 
739 2 -7.38827 -12.1191 -14.2366 
740 2 -6.26138 -13.966 -11.2018 
741 2 -13.4382 -2.71083 -5.83255 
742 2 3.78548 -9.11922 -6.52797 
743 2 -7.21636 5.17752 8.73813 
744 2 -8.70795 -11.9062 9.89871 
745 2 11.6134 -14.238 -3.5698 
746 2 11.4592 5.16198 -4.67175 
747 2 -2.57019 -12.591 12.3674 
748 2 -9.74905 -10.9161 4.83542 
749 2 5.72456 -8.46061 11.8489 
750 2 -9.18776 3.44286 8.38459 
751 2 4.85015 -9.1572 2.69052 
752 2 -10.5777 -1.57931 -9.56609 
753 2 12.7265 11.165 -3.29609 
754 2 12.2044 -6.53065 12.2837 
755 2 -6.77659 -11.5016 -11.7622 
756 2 -2.46942 -5.73864 -7.6858 
757 2 -0.118984 -11.5088 13.919 
758 2 -4.77431 14.1174 5.47332 
759 2 -4.51323 11.2411 1.55065 
760 2 -1.01999 4.5732 12.3048 
761 2 3.55057 -13.8016 -9.45901 
762 2 11.2847 -0.726276 6.02662 
763 2 -10.8881 -12.4843 -9.80326 
764 2 2.52997 0.523018 3.97427 
765 2 -10.2482 0.838466 -13.8953 
766 2 -5.71782 -10.7956 -2.22759 
767 2 -11.7149 -3.88164 -11.3982 
768 2 -12.4467 -8.28313 9.9342 
769 2 9.9483 2.75405 2.47888 
770 2 -3.46835 3.68192 -13.1137 
771 2 5.28158 3.5717 -10.0032 
772 2 14.2214 0.240719 -3.34691 
773 2 7.4596 5.97007 -12.8417 
774 2 9.45609 2.52115 -3.94982 
775 2 -11.3811 -5.74716 -7.79813 
776 2 4.51513 -13.5576 -2.14085 
777 2 -0.670527 2.37747 10.8628 
778 2 2.8088 -1.64844 4.91585 
779 2 -7.81147 -11.8858 3.36854 
780 2 -0.0615911 2.7188 6.82511 
781 2 9.7725 -11.7351 -0.764435 
782 2 3.43337 2.74915 -11.3898 
783 2 -1.66727 -8.15934 3.26389 
784 2 0.579693 11.5912 2.30677 
785 2 6.54833 10.6168 4.7406 
786 2 -13.2946 -5.97058 -0.879715 
787 2 14.2644 11.5842 -12.1886 
788 2 10.6265 -10.073 0.84314 
789 2 -1.70366 -13.7668 -6.89738 
790 2 -5.402 -1.97428 -13.7753 
791 2 8.42786 -4.14154 -6.39387 
792 2 2.49452 0.56486 -7.06055 
793 2 5.95181 13.899 11.959 
794 2 3.15902 0.550049 1.27582 
795 2 -8.58377 -13.2225 -12.2542 
796 2 -12.7294 5.3559 10.172 
797 2 3.36116 13.2782 -1.37049 
798 2 14.3312 3.62769 2.88442 
799 2 7.14539 -1.8353 12.9974 
800 2 14.502 9.75209 -2.19409 
801 2 5.47544 -1.91935 -13.1256 
802 2 12.1746 -4.14668 8.65624 
803 2 -2.4101 -10.321 7.87446 
804 2 -5.64048 1.3246 1.16714 
805 2 7.75737 14.0805 0.23287 
806 2 9.80205 9.19387 6.52847 
807 2 0.245089 -2.24552 -12.8479 
808 2 -3.32822 -0.600331 1.791 
809 2 -7.70583 12.981 -3.50691 
810 2 13.0675 11.665 7.64385 
811 2 -5.63411 10.3797 -4.08769 
812 2 -8.74998 -13.8962 -0.588567 
813 2 7.60995 5.24981 6.34463 
814 2 -9.36027 -5.39713 -6.4156 
815 2 -14.6476 -9.51844 10.069 
816 2 12.8987 -14.6149 7.98956 
817 2 -3.26901 -8.34478 8.66537 
818 2 -9.37328 6.42762 13.1343 
819 2 11.4105 3.796 -2.51664 
820 2 -5.10885 -12.9037 -13.2533 
821 2 -0.666819 -5.67857 -10.5154 
822 2 9.64801 -3.99995 9.91879 
823 2 13.2341 13.2985 12.8473 
824 2 4.54214 -13.9763 13.2566 
825 2 7.85904 2.69289 0.185513 
826 2 -1.07157 -12.8989 -2.15056 
827 2 -5.50158 -0.768731 2.81764 
828 2 -3.3659 3.66698 1.96326 
829 2 -7.82084 -6.41961 -10.6972 
830 2 -7.5309 6.58743 -14.6027 
831 2 -5.49253 3.40599 -9.20907 
832 2 8.73191 -13.0097 1.19198 
833 2 14.6264 -2.50622 2.35394 
834 2 0.380582 -9.54946 1.67276 
835 2 4.29176 -1.76113 8.27948 
836 2 -4.92835 -5.04938 -13.825 
837 2 -14.0757 -11.9387 11.0773 
838 2 6.30153 -7.35918 9.59231 
839 2 -7.21559 -6.8107 10.7285 
840 2 10.6125 14.0369 -12.4156 
841 2 -12.6303 -10.7525 9.37616 
842 2 -12.9393 8.92249 -10.2586 
843 2 13.6546 -6.17864 -3.98107 
844 2 8.64934 6.67111 -10.7301 
845 2 -13.069 -6.52529 1.46689 
846 2 8.64953 -6.3982 9.46511 
847 2 -7.77526 -1.05798 -13.5469 
848 2 -12.5289 0.459911 -0.124468 
849 2 9.78315 -9.40771 -1.78426 
850 2 10.1791 2.98625 14.2969 
851 2 -10.6972 -4.36832 -14.0527 
852 2 7.56126 -8.1329 -12.7417 
853 2 11.9571 13.2618 6.15942 
854 2 12.704 -5.73167 -11.5965 
855 2 14.0598 14.6275 -9.40282 
856 2 -4.83982 -8.02733 11.1251 
857 2 0.380864 0.193159 -8.73414 
858 2 9.23918 -9.50582 2.88522 
859 2 -2.12174 9.9845 6.20549 
860 2 -4.18913 -5.7769 11.8512 
861 2 8.0454 2.51682 -13.6456 
862 2 3.21441 2.96827 2.95142 
863 2 12.3012 -9.36828 -8.91045 
864 2 -14.0024 11.6992 8.63384 
865 2 10.1746 -7.90552 11.5693 
866 2 -8.49363 3.92603 -14.46 
867 2 -7.3001 -14.0997 13.6587 
868 2 0.0649004 5.67888 4.34936 
869 2 1.91395 6.90092 8.40478 
870 2 -3.45473 -7.69319 -6.54741 
871 2 -8.06712 14.0706 -8.90699 
872 2 2.42864 -2.73684 6.91844 
873 2 13.5909 -0.170094 -9.12733 
874 2 11.0677 0.0746727 -9.4178 
875 2 0.166351 -5.65558 6.82253 
876 2 0.870072 -13.5884 3.43368 
877 2 -6.22088 -11.6167 9.94656 
878 2 10.3929 -1.45003 -2.00089 
879 2 7.35015 -3.9512 -3.0176 
880 2 -7.24454 -13.775 8.90126 
881 2 -10.1446 -10.0684 -9.32309 
882 2 -11.1969 6.12685 -2.49349 
883 2 5.99184 -3.43402 14.4328 
884 2 -5.67595 0.548176 -12.3473 
885 2 -10.9949 12.5536 8.39222 
886 2 8.12642 9.27009 8.42018 
887 2 -12.8596 13.9891 8.72184 
888 2 6.74793 -6.18492 -2.92103 
889 2 -0.740396 -4.15742 3.07933 
890 2 3.80148 -10.1694 7.23424 
891 2 -8.1857 -12.7353 -9.84208 
892 2 -12.3987 7.75095 -14.037 
893 2 5.03579 -12.3692 -11.7257 
894 2 2.69524 2.75454 -5.50644 
895 2 -4.33079 14.5818 3.17828 
896 2 -0.594554 7.4232 -12.0487 