LAMMPS data file from restart file: timestep = 10000000, procs = 4

1425 atoms

3 atom types

-1.4729611651171382e+01 1.4729611651171382e+01 xlo xhi
-1.4729611651171382e+01 1.4729611651171382e+01 ylo yhi
-1.4729611651171382e+01 1.4729611651171382e+01 zlo zhi

Masses

1 91.22
2 63.55
3 26.98

Atoms

189 1 -1.2163954758446296e+01 -1.2465093291219471e+01 -1.1064456866800020e+01 0 0 0
787 2 -1.3214154921853849e+01 -1.4157781661076305e+01 -1.3107394857564142e+01 0 0 0
864 2 -1.0677299951630051e+01 -1.2277652710974065e+01 -1.3724119096988222e+01 0 0 0
1425 3 -1.3038135671284181e+01 -1.1774751478718461e+01 -1.3843745117520827e+01 0 0 0
608 1 -9.9251597793045754e+00 -1.4302300022794983e+01 -9.8662004826924790e+00 0 1 0
1143 2 -9.7889580567205936e+00 -1.0983211514163353e+01 -1.0887118801625139e+01 0 0 0
263 1 -8.1704606969206228e+00 -1.2550684406354499e+01 -1.2347830939032216e+01 0 0 0
1199 2 -5.6828096288743577e+00 -1.2039683280985759e+01 -1.1040212246268583e+01 0 0 0
1289 2 -7.1787215256375205e+00 -1.4281308999293838e+01 -1.0455760261001631e+01 0 0 0
589 1 -5.7024577161826944e+00 -1.0466956944112255e+01 -1.3582902171375487e+01 0 0 0
1311 2 -6.6906102020017997e+00 -1.2993021455481250e+01 -1.4663525304663800e+01 0 0 1
315 1 -4.9841742029675622e+00 -1.4307589809755003e+01 -1.2633746784700961e+01 0 0 0
747 2 -1.5434625333933329e+00 -1.2917350097546780e+01 -1.3687030408687921e+01 0 0 0
789 2 -3.2528709289545983e+00 -1.2318368413073324e+01 -1.1997525835200657e+01 0 0 0
931 2 -1.0949054924251733e+00 -1.1109229565836683e+01 -1.1452573105824804e+01 0 0 0
62 1 -2.4520698686943074e+00 -1.0006948729981584e+01 -1.3574618318679061e+01 0 0 0
891 2 -4.1042363952135918e+00 -1.0124964932105856e+01 -1.1302412747890278e+01 0 0 0
1248 2 -3.3637496456433382e+00 -1.4157625928599639e+01 -1.0122508789785027e+01 0 0 0
704 1 -6.5120218007199249e-01 -1.3487218905488263e+01 -1.0135612402310581e+01 0 0 0
1025 2 3.2025968779821312e-01 -1.1507091945052498e+01 -1.3414108124704253e+01 0 0 0
325 1 1.9670831034823095e+00 -1.1785370757535244e+01 -1.1198142452073778e+01 0 0 0
928 2 2.6344539152672972e+00 -1.0731350841419378e+01 -1.3856544540402114e+01 0 0 0
935 2 2.9879015296497400e+00 -1.3141696544228584e+01 -1.3558465018680307e+01 0 0 0
967 2 1.0629961691592076e+00 -1.4024576919377562e+01 -1.2342672368621443e+01 0 0 0
1362 3 4.2073984549963868e+00 -1.3732357911264492e+01 -1.1362016774231266e+01 0 0 0
378 1 5.2370507458657194e+00 -1.1325649608012508e+01 -1.2703251218572174e+01 0 0 0
706 1 8.1809819590751403e+00 -1.3107253087201043e+01 -1.3246278690725015e+01 0 0 0
1188 2 5.3817369822345675e+00 -1.4066722074737118e+01 -1.3596901268411040e+01 0 0 0
1243 2 9.5774558185654506e+00 -1.1747193751012318e+01 -1.0763026958280495e+01 0 0 0
1305 2 7.8010020237496782e+00 -1.0023905702377956e+01 -1.1589727434154462e+01 0 0 0
1389 3 7.1154277416972356e+00 -1.2222268526593735e+01 -1.0593515172158892e+01 0 0 0
1220 2 6.6006082361523610e+00 -1.4555066368453650e+01 -1.1252751332231551e+01 0 0 0
1228 2 9.7496406060449203e+00 -1.0899905566164652e+01 -1.3044113910690399e+01 0 0 0
109 1 9.3225611321236244e+00 -1.4619635906128851e+01 -1.0643217301844359e+01 0 1 0
1226 2 1.4602013886952570e+01 -1.1872302349917344e+01 -1.2152498727188854e+01 0 0 0
146 1 1.1827929111681460e+01 -1.2901194033910565e+01 -1.1694949762261588e+01 0 0 0
233 1 1.2356186173850226e+01 -1.0248999765051501e+01 -1.2536773606992426e+01 0 0 0
433 1 1.3769551156890348e+01 -1.3862918562761894e+01 -1.4005963914025202e+01 0 0 0
358 1 1.4508972053939313e+01 -1.3859329846632310e+01 -1.0403236587135746e+01 -1 1 0
1273 2 1.3709861733377160e+01 -1.0284335908968552e+01 -1.0286584952293378e+01 0 0 0
1399 3 -1.1816589428497654e+01 -9.8800023268317361e+00 -1.0025227924859923e+01 0 0 0
464 1 -1.4083136704216686e+01 -9.2370182102701044e+00 -1.2397468642914969e+01 0 0 0
482 1 -1.2188826799991196e+01 -7.1616016061462213e+00 -1.1405329806181939e+01 0 0 0
509 1 -1.3055939101046189e+01 -6.7644464858619360e+00 -1.4550622178314022e+01 0 0 0
610 1 -1.1064775535982090e+01 -9.6548971689244159e+00 -1.3114441117140796e+01 0 0 0
542 1 -9.8909997151709028e+00 -6.7543486385654194e+00 -1.3295501901213044e+01 0 0 0
186 1 -1.3792690116597413e+01 -5.0833208237362335e+00 -9.9484696520471569e+00 0 0 0
1071 2 -1.4605630738972323e+01 -6.3432870350770347e+00 -1.2342815132674554e+01 1 0 0
991 2 -8.2813778488622916e+00 -9.5748222273949342e+00 -1.2686589813157852e+01 0 0 0
282 1 -5.6972323369047668e+00 -5.3895841015892518e+00 -1.4054997790382187e+01 0 0 0
402 1 -6.7623870440950382e+00 -9.1734491567269423e+00 -1.0454402404542419e+01 0 0 0
1076 2 -7.3651910054545233e+00 -7.0588258175699998e+00 -1.2153834001944713e+01 0 0 0
1382 3 -9.5150850221707231e+00 -8.4079771076923180e+00 -1.0826451653857401e+01 0 0 0
73 1 -9.2484128221772473e+00 -5.6445228687403581e+00 -1.0332936733492829e+01 0 0 0
295 1 -4.5931784177994022e+00 -7.5549166284048566e+00 -1.2106356745030673e+01 0 0 0
428 1 -1.6694089621326267e+00 -7.1073161693342932e+00 -1.2958010138487412e+01 0 0 0
1018 2 -2.0007203051009288e+00 -8.8725459763154717e+00 -1.0734627312381345e+01 0 0 0
1087 2 -1.0439894609471096e+00 -5.2731007007162916e+00 -1.1165021213558019e+01 0 0 0
52 1 7.0381899513225044e-01 -9.0416704254278706e+00 -1.2166795932757520e+01 0 0 0
151 1 3.2350234881717874e+00 -6.9774674133933345e+00 -1.0580699385592355e+01 0 0 0
235 1 3.1141197670222098e+00 -7.9866036582930020e+00 -1.3907963026081255e+01 0 0 0
870 2 9.7491134907371269e-01 -6.3042262268159703e+00 -1.2243436674710068e+01 0 0 0
1304 2 3.4853442912601338e+00 -9.5637621860270912e+00 -1.1451982703860153e+01 0 0 0
486 1 3.0776657983942250e+00 -5.0517943339158258e+00 -1.3198544738990700e+01 0 0 0
491 1 7.4980287888763435e+00 -9.7694164140539641e+00 -1.4269046652863013e+01 0 0 1
257 1 5.6644368209308169e+00 -7.9754979790203775e+00 -1.2440778500911028e+01 0 0 0
329 1 8.1409631325172178e+00 -6.8034969199567890e+00 -1.3493645631933823e+01 0 0 0
385 1 8.3336286233802248e+00 -7.5417308898632287e+00 -1.0455440694616474e+01 0 0 0
1374 3 5.5649731264184972e+00 -5.1498784821021726e+00 -1.1501539476738191e+01 0 0 0
1315 2 1.0033450105304667e+01 -8.4867732534248859e+00 -1.2643400269727792e+01 0 0 0
169 1 1.0917720811589216e+01 -9.4104057231662974e+00 -1.0082828822420204e+01 0 0 0
582 1 1.0895878955449490e+01 -6.3064329685598874e+00 -1.1023794577711607e+01 0 0 0
583 1 1.2663317871713467e+01 -7.4306573227880479e+00 -1.3193740942077905e+01 0 0 0
681 1 1.3478851144108450e+01 -7.4020499432175155e+00 -1.0136607415278505e+01 0 0 0
698 1 1.0501029733446060e+01 -4.9773520777585247e+00 -1.3629046775821395e+01 0 0 0
102 1 -1.1412606590177933e+01 -4.0897946017045825e+00 -1.1733693095263501e+01 0 0 0
446 1 -1.2461072039971834e+01 -1.7693812794601360e+00 -1.3853380654328713e+01 0 0 0
768 2 -1.3787651071046072e+01 -2.4405065953548952e+00 -1.1486066284153853e+01 0 0 0
854 2 -1.3727914209601913e+01 -4.3309303206313494e+00 -1.3236331580123169e+01 0 0 0
1320 2 -1.1291105643143474e+01 -4.4677315959151649e+00 -1.4351669217669636e+01 0 0 0
53 1 -1.1225757144036663e+01 -5.6802683664826148e-01 -1.1386533774066622e+01 0 0 0
80 1 -5.8815431081192315e+00 -2.2748758467390733e+00 -1.3578124989411419e+01 0 0 0
362 1 -7.5983439659166176e+00 -4.2895809456366827e+00 -1.1995652576292180e+01 0 0 0
501 1 -9.2892135514023781e+00 -2.3518993886366300e+00 -1.3150090876654421e+01 0 0 0
1392 3 -5.5094197672382172e+00 -2.7024326574511974e+00 -1.0739217417197889e+01 0 0 0
601 1 -7.7971587865623082e+00 -8.7805745640099175e-01 -1.0780741521554189e+01 0 0 0
271 1 -2.9092988192651124e+00 -2.4413380007394068e+00 -1.4552286050307378e+01 0 0 0
525 1 -8.1096687660750888e-01 -8.2245517407069180e-01 -1.2999593063381214e+01 0 0 0
616 1 -3.5525283055694317e+00 -4.4981953537182289e+00 -1.2078728320497632e+01 0 0 0
1233 2 -9.2168549526198085e-01 -2.7857403920038610e+00 -1.1022866466015209e+01 0 0 0
1319 2 -3.2778942181339357e+00 -1.8514891497650492e+00 -1.1794912158704065e+01 0 0 0
96 1 -3.5568019886574653e-01 -3.9887598031197964e+00 -1.3551359108115498e+01 0 0 0
424 1 -1.6405983121609005e+00 -2.0589348801229157e-01 -1.0122454883957634e+01 0 0 0
24 1 1.4186838321861437e+00 -4.2663723241901526e+00 -1.0218674522897913e+01 0 0 0
555 1 1.4531942412110972e+00 -7.6344886141433754e-01 -1.0423372174308142e+01 0 0 0
652 1 3.9093691990752362e+00 -2.8308714614122010e+00 -1.1143116516090707e+01 0 0 0
733 2 4.0515216259204614e+00 -2.6702001712366084e+00 -1.3988523085786801e+01 0 0 0
894 2 1.6780157947730245e+00 -2.4397706940065085e+00 -1.2686337033399790e+01 0 0 0
1417 3 1.5725314640654844e+00 -7.8396802481262462e-01 -1.4572517133202501e+01 0 0 0
18 1 3.7792637417616213e+00 -1.9942292381761106e-01 -1.2869288045436736e+01 0 0 0
710 1 4.8909864704342958e+00 -2.3328535884322577e-01 -9.9758244943483945e+00 0 0 0
27 1 6.0917752474388891e+00 -4.6928344811316691e+00 -1.4307612767580570e+01 0 0 0
613 1 8.2214826004238937e+00 -4.4485562242042072e+00 -1.1450816577442694e+01 0 0 0
1028 2 6.2923894589455358e+00 -2.5327369569415605e+00 -1.2411994227679905e+01 0 0 0
1302 2 8.4916139774113724e+00 -1.5473491770856196e+00 -1.1358614452183581e+01 0 0 0
241 1 8.6134494454638251e+00 -2.6400991636990998e+00 -1.4091387063452364e+01 0 0 1
807 2 6.1005742218672268e+00 -1.5284714235429213e+00 -1.4683682254768282e+01 0 0 1
502 1 1.3150430215965976e+01 -4.2349977078509831e+00 -1.1641986512514062e+01 0 0 0
752 2 1.4264491049564406e+01 -2.4332082545400020e+00 -1.3636844332750377e+01 0 0 0
1127 2 1.2785307560982897e+01 -1.4358569694141519e+00 -1.1635711377330427e+01 0 0 0
1249 2 1.1670675078070516e+01 -2.4450184600222471e+00 -1.3860331474031547e+01 0 0 0
1401 3 1.0592992138299291e+01 -2.7935009492062779e+00 -1.1583270899857869e+01 0 0 0
1128 2 1.2903261000021832e+01 -3.5694448905470111e-01 -1.3840179851266672e+01 0 0 0
843 2 1.0668218252072933e+01 -3.5341687000972577e-01 -1.0650337819531650e+01 0 0 0
292 1 -1.2583795231925896e+01 -1.4498414403624231e+01 -8.2449993661809433e+00 0 1 0
38 1 -1.0808519485387272e+01 -1.1913882266548493e+01 -7.9302490823275829e+00 0 0 0
240 1 -1.3443700978004134e+01 -1.2406128351392045e+01 -5.7071157095429932e+00 0 0 0
356 1 -1.4030594178442838e+01 -1.1488518557643818e+01 -8.5588809090665912e+00 0 0 0
306 1 -1.0535767866523077e+01 -1.3927477649119359e+01 -5.5478797569996452e+00 0 0 0
766 2 -9.6875234562214008e+00 -1.0144639304230967e+01 -6.0415393839605755e+00 0 0 0
594 1 -7.8951570691810948e+00 -1.1778687389458822e+01 -9.1676754446824980e+00 0 0 0
379 1 -8.1315800920240839e+00 -1.3867115859378030e+01 -7.3745383646313840e+00 0 0 0
907 2 -5.3929674080155721e+00 -1.0792735558420160e+01 -8.7859661898388239e+00 0 0 0
1337 2 -5.4181808051080669e+00 -1.3339149293654241e+01 -8.8756707538406765e+00 0 0 0
349 1 -5.5861166765338321e+00 -1.2317908756268629e+01 -6.3455082181890621e+00 0 0 0
175 1 -1.3726318574462208e+00 -1.1305249076836741e+01 -6.5672099431136424e+00 0 0 0
196 1 -3.0459684286163480e+00 -1.3949996257828834e+01 -7.1388339500527698e+00 0 0 0
709 1 -2.9186679272091212e+00 -1.1524628421231672e+01 -9.2037601981334021e+00 0 0 0
557 1 1.6580188025272946e-02 -1.0455434942142510e+01 -9.0759338516875161e+00 0 0 0
805 2 4.4040241248833318e+00 -1.1787757220284549e+01 -9.8149738862388851e+00 0 0 0
188 1 5.7336946232879882e-02 -1.3785662336231926e+01 -7.2590510901131076e+00 0 0 0
1056 2 2.8850207367467462e+00 -1.4033550290832178e+01 -6.9925135893514190e+00 0 0 0
1134 2 1.4131981662544071e+00 -1.1358241924132088e+01 -6.4692837334535707e+00 0 0 0
1325 2 2.1887122055979518e+00 -1.2310424519704778e+01 -8.6185038296139176e+00 0 0 0
304 1 4.3783283676169269e+00 -1.1568195896975402e+01 -6.9236024137860683e+00 0 0 0
494 1 5.3321036242576767e+00 -1.4263287128377305e+01 -8.5535588489520631e+00 0 0 0
458 1 7.6264781088769134e+00 -1.0474942134900219e+01 -6.3045776341767272e+00 0 0 0
634 1 9.2568636968713491e+00 -1.2617964243684231e+01 -8.2459889767706827e+00 0 0 0
855 2 9.4425421193537993e+00 -1.2243875018499303e+01 -5.6222930031502738e+00 0 0 0
898 2 7.0687197584858410e+00 -1.3304520829034344e+01 -6.4988299280150912e+00 0 0 0
1115 2 6.5712193193912434e+00 -1.1738541013135423e+01 -8.3738456699467179e+00 0 0 0
1125 2 8.4232419243053016e+00 -9.9710407343369525e+00 -8.9522710438553901e+00 0 0 0
412 1 4.9073334596449030e+00 -1.3992643183191417e+01 -5.1297603532888978e+00 0 0 0
776 2 1.3408953959306665e+01 -1.1768462867104230e+01 -6.5199596094886623e+00 -1 0 0
248 1 1.3898729272059931e+01 -1.4583865919172181e+01 -7.4484840877224210e+00 0 0 0
467 1 1.2165388412915647e+01 -1.2151379637140378e+01 -8.9051174552224950e+00 0 0 0
773 2 1.1484556968200991e+01 -1.3356039253469991e+01 -6.3349759155812517e+00 0 0 0
1009 2 1.0476461588786332e+01 -1.0204520405496231e+01 -7.3194371319848353e+00 0 0 0
136 1 -1.2236537720607295e+01 -9.4458172768286293e+00 -6.8738038180931955e+00 0 0 0
305 1 -1.1751124287166164e+01 -5.4261273956734417e+00 -5.9912893499433899e+00 0 0 0
392 1 -1.1317528292104402e+01 -7.2005414310388174e+00 -8.6596534483728043e+00 0 0 0
430 1 -1.4088961210615324e+01 -6.8799877707298025e+00 -7.3999230491801411e+00 0 0 0
1235 2 -1.3814226447689750e+01 -8.7614532329547323e+00 -9.3578629501115440e+00 0 0 0
60 1 -1.4646779238197558e+01 -9.2344259149325829e+00 -5.2263649071913623e+00 1 0 0
145 1 -5.8578829367674690e+00 -5.8169602059722152e+00 -9.6983922473680195e+00 0 0 0
130 1 -7.0738758148224559e+00 -9.5664262895653351e+00 -6.9635874072439448e+00 0 0 0
775 2 -8.0493940415640317e+00 -7.4455831107370516e+00 -8.6318341731154433e+00 0 0 0
1210 2 -9.5237834631512719e+00 -9.5163901403339839e+00 -8.5718117947270560e+00 0 0 0
1366 3 -9.5308712127079325e+00 -7.6823992996264563e+00 -6.5396397723979423e+00 0 0 0
1406 3 -6.8902579792524161e+00 -6.5413883569776665e+00 -6.5781699933238080e+00 0 0 0
1192 2 -5.4090309648126613e+00 -7.7454957618003002e+00 -5.1364673685557154e+00 0 0 0
1414 3 -2.7766985169850695e+00 -6.4690192940814661e+00 -9.7638535047869794e+00 0 0 0
489 1 -3.9323742185034671e+00 -9.7204940924692416e+00 -6.6400396574038876e+00 0 0 0
1307 2 -4.6297021882643854e+00 -7.1464421519127574e+00 -7.4504707031009456e+00 0 0 0
142 1 -2.5065975572804771e+00 -7.0795518053402899e+00 -5.5173006145904377e+00 0 0 0
880 2 -1.9831494416933211e+00 -8.5224403053938040e+00 -8.2184177895107844e+00 0 0 0
1171 2 -7.7487867298873070e-01 -6.3344937792828144e+00 -7.4003957933727174e+00 0 0 0
1343 2 -4.2569213917233437e+00 -8.5880313612926855e+00 -9.3526142721495766e+00 0 0 0
950 2 -3.5151776890579516e+00 -5.0382590060598407e+00 -7.7980552930188543e+00 0 0 0
572 1 -4.6059150884548981e+00 -4.9391286556826870e+00 -5.1871642111608374e+00 0 0 0
22 1 1.4634698238947941e-01 -8.7293061185337955e+00 -6.3728136340309387e+00 0 0 0
164 1 2.7108404531519703e+00 -9.4695115855150256e+00 -8.6082480738212350e+00 0 0 0
238 1 2.1314756326794537e+00 -6.5508045701488289e+00 -7.4206764345778655e+00 0 0 0
360 1 2.4393035984505751e-01 -7.3223594107015151e+00 -9.7104009920168792e+00 0 0 0
1183 2 4.5425445730284579e+00 -7.4322162550401227e+00 -7.9918239981732455e+00 0 0 0
475 1 2.8580764779457759e+00 -9.3636442096726498e+00 -5.2476609733832547e+00 0 0 0
1111 2 6.0965868171409632e+00 -6.5440509475557018e+00 -9.5762083108229756e+00 0 0 0
417 1 5.7349060761548714e+00 -9.4019349982001170e+00 -9.6073071318448857e+00 0 0 0
155 1 5.8436403105027388e+00 -5.6412841911870188e+00 -6.2164270735701308e+00 0 0 0
1100 2 5.3673523295954730e+00 -8.9537110565271014e+00 -6.4752124203112302e+00 0 0 0
1240 2 8.6016887193315483e+00 -6.1619093143936432e+00 -5.9660540756049354e+00 0 0 0
1373 3 7.4735540356012109e+00 -7.8568081905641263e+00 -7.5876726200425386e+00 0 0 0
731 2 9.5888920149152810e+00 -8.4719799741945110e+00 -5.7510054488153362e+00 0 0 0
1262 2 1.2123669718785393e+01 -8.3244538300340150e+00 -5.2450951704139666e+00 0 0 0
33 1 1.3111974853162085e+01 -9.2167917064265623e+00 -7.6978252916595977e+00 0 0 0
657 1 1.0590417136923719e+01 -7.0350482081213990e+00 -7.9627564165003637e+00 0 0 0
1067 2 1.2974296436105160e+01 -6.4560852810936353e+00 -6.2702911206290910e+00 0 0 0
1376 3 1.0787905089747412e+01 -5.9834971485110255e+00 -5.0658038860376031e+00 0 0 0
969 2 -1.4684614120722939e+01 -4.8540504774110627e+00 -5.5967860710049777e+00 0 0 0
960 2 -1.1368572728011905e+01 -4.5306735572339498e+00 -8.7251836778616507e+00 0 0 0
58 1 -1.3592897119179373e+01 -9.8606895210247281e-01 -6.7737912177451403e+00 0 0 0
833 2 -1.2376503474928249e+01 -2.4498762719829656e+00 -9.4008790839584826e+00 0 0 0
923 2 -1.3664909695358917e+01 -3.7312468049544307e+00 -7.4926050217472921e+00 0 0 0
1097 2 -1.1191168928134571e+01 -2.5636430083669826e+00 -7.1593100718121852e+00 0 0 0
1346 2 -1.3422560611815060e+01 -3.4974038251687922e-01 -9.4644927965587264e+00 0 0 0
1387 3 -9.8411519183327894e+00 -2.7180115592475378e+00 -9.8415929757186262e+00 0 0 0
904 2 -9.2062956568719976e+00 -5.0039152747739735e-01 -5.9243658064947002e+00 0 0 0
551 1 -8.9629244556854850e+00 -4.8260170892206080e+00 -7.3905180777628194e+00 0 0 0
110 1 -6.6329205862431770e+00 -2.1066786815246292e+00 -5.1563289019828638e+00 0 0 0
249 1 -5.8293607390626256e+00 -1.2902173223709266e+00 -8.1425573077879569e+00 0 0 0
734 2 -6.0726692154622519e+00 -4.0548745965761750e+00 -7.3655581176803713e+00 0 0 0
1230 2 -7.4571877149909680e+00 -3.4568911684646491e+00 -9.3589876179985225e+00 0 0 0
1410 3 -8.4938649591296702e+00 -2.0083525910600741e+00 -7.6125586785105934e+00 0 0 0
988 2 -7.3303591804861341e+00 -4.6166542789198335e+00 -5.0202708926338904e+00 0 0 0
79 1 -9.7531803289433370e+00 -3.0415336708471106e+00 -4.9430381695392764e+00 0 0 0
507 1 -3.1519157124283375e+00 -2.7739266049077393e+00 -9.1615193671212882e+00 0 0 0
1177 2 -1.1172957843755089e+00 -4.5768768108889208e+00 -8.9069088444823912e+00 0 0 0
1186 2 -3.9875189402679947e+00 -2.5224389991795402e+00 -6.4543215444388533e+00 0 0 0
1245 2 -1.7882960109917558e+00 -1.4074285195414582e+00 -7.0126384915226572e+00 0 0 0
221 1 -1.4965876889948593e+00 -3.9709762319877093e+00 -6.1446207360284859e+00 0 0 0
1031 2 -1.1930511778849251e-01 -2.2603624893916372e+00 -8.6251385061359169e+00 0 0 0
1354 2 -3.4303118615812895e+00 -3.5993618920763026e-02 -8.0451198583693682e+00 0 0 0
103 1 4.2172540413592614e+00 -4.6949031134450632e+00 -8.6861707526706731e+00 0 0 0
844 2 1.0074870652459129e+00 -4.1125663764565292e+00 -7.3977731205220731e+00 0 0 0
174 1 2.9924089310324185e+00 -4.0668970826875430e+00 -5.5040366371945861e+00 0 0 0
113 1 3.0996302432564988e+00 -2.0676745211165208e+00 -8.1018650684738027e+00 0 0 0
527 1 9.5920043862739668e-01 -1.5073798838725487e+00 -6.1325961532905904e+00 0 0 0
202 1 3.7972449446204841e+00 -9.1108608217291831e-01 -4.9636193815631184e+00 0 0 0
373 1 7.9623534388181518e+00 -4.9088257680130241e+00 -8.3016741920577051e+00 0 0 0
251 1 6.5112190044102825e+00 -2.5986714820475338e+00 -9.5465246763106411e+00 0 0 0
133 1 8.1728540798841074e+00 -1.0758026392456923e+00 -6.3939264263904096e+00 0 0 0
481 1 5.7410760352072963e+00 -2.7862838692975664e+00 -6.6447440955046915e+00 0 0 0
1130 2 9.1740761383751988e+00 -2.2530836611148501e+00 -9.0674951397377939e+00 0 0 0
719 2 5.4510554122714083e+00 -1.3414096629002792e-01 -7.1837585332983114e+00 0 0 0
989 2 1.4438578047904155e+01 -2.5439831264517387e+00 -9.4367029587522957e+00 0 0 0
104 1 1.2966246997017745e+01 -4.8589479330473750e+00 -8.3783600040256392e+00 0 0 0
534 1 1.3198455658578045e+01 -2.0933515863204821e+00 -7.0219984275489038e+00 0 0 0
575 1 1.0317235768869111e+01 -3.4494535911511868e+00 -6.7638105157655239e+00 0 0 0
916 2 1.0413686515909315e+01 -4.3502941900153491e+00 -9.4345293562444343e+00 0 0 0
1153 2 1.1900900283549237e+01 -2.4258760841608886e+00 -9.4492404227534550e+00 0 0 0
1118 2 1.2432510046953482e+01 -4.1133984426819303e+00 -5.1003306472771648e+00 0 0 0
57 1 1.0729634927605360e+01 -2.6476359879061562e-01 -7.9664209160102235e+00 0 0 0
1037 2 -1.4331890542314065e+01 -1.4636390480318497e+01 -2.2907693924853483e+00 1 0 0
118 1 -1.1337492161443384e+01 -1.1069994906981435e+01 -3.9487742711250409e+00 0 0 0
671 1 -1.3909996774615648e+01 -1.1932985142972615e+01 -2.1894504098758727e+00 0 0 0
745 2 -1.2376430475891194e+01 -1.4227504500886635e+01 -7.0493317912666598e-01 0 0 0
1117 2 -1.1652759028401476e+01 -1.1731154007072480e+01 -6.4924074806811305e-01 0 0 0
1172 2 -1.2164831993124842e+01 -1.3752835716454733e+01 -3.2742968802199091e+00 0 0 0
563 1 -9.8472362772543907e+00 -1.3097779045686204e+01 -1.9938306511931660e+00 0 0 0
87 1 -8.2771700997642803e+00 -1.1871909155520131e+01 -4.5814563751909425e+00 0 0 0
871 2 -7.3964262362547784e+00 -1.4437309038036551e+01 -4.7925427381863273e+00 0 1 0
1314 2 -9.1888278867320530e+00 -1.0308697590359438e+01 -2.3531143337185778e+00 0 0 0
353 1 -6.9750687468452099e+00 -1.1562048126167708e+01 -1.4851324417105154e+00 0 0 0
139 1 -5.1875008160778684e+00 -1.0154172230776059e+01 -3.8284502791255317e+00 0 0 0
1218 2 -5.7842371488893090e+00 -1.2841899160423097e+01 -3.7312241111243658e+00 0 0 0
225 1 -7.0935186440025380e+00 -1.4536119204351621e+01 -2.0800652202183034e+00 0 1 0
333 1 -2.9691609098268312e+00 -1.2289689645444215e+01 -4.4850545055420419e+00 0 0 0
374 1 -3.9919180004190284e+00 -1.2976892050619455e+01 -1.7219127411380821e+00 0 0 0
566 1 -2.5007334002033499e+00 -1.0135359071484203e+01 -2.0246902962271225e+00 0 0 0
1396 3 -1.0006708465175578e+00 -1.2673867244858950e+01 -2.1794429741676815e+00 0 0 0
1019 2 -1.5707557029657462e+00 -1.4701862003343461e+01 -7.1978090360417113e-01 0 1 0
1047 2 2.0085005830557279e-02 -1.2950001390093350e+01 -4.5692901090326057e+00 0 0 0
911 2 2.8341956333635530e+00 -1.2162860531966011e+01 -4.5664548047802498e+00 0 0 0
195 1 4.1570201369039950e-01 -1.0399344075879686e+01 -3.6946024672829481e+00 0 0 0
184 1 1.8722349191006487e+00 -1.3062713670324882e+01 -2.2130833515367652e+00 0 0 0
560 1 3.2899335175630995e+00 -1.0523317047057482e+01 -1.8785709197038845e+00 0 0 0
1103 2 4.2782796259151503e+00 -1.2757293634984675e+01 -3.0236668336868533e-01 0 0 0
35 1 3.1091725056824338e-01 -1.0067412650217477e+01 -6.3859287289110789e-01 0 0 0
808 2 2.0978860360437679e-01 -1.2784155090895652e+01 -7.2853179237071686e-02 0 0 0
732 2 4.8611829901323027e+00 -1.2762402842104814e+01 -2.7036002405438335e+00 0 0 0
44 1 9.4705858948623138e+00 -1.4180310266280795e+01 -1.4789181290070257e+00 0 0 0
299 1 5.4363970542876210e+00 -1.0490085263151553e+01 -4.0636682641869637e+00 0 0 0
438 1 6.9400150779466117e+00 -1.0958781279202478e+01 -1.3674353406722979e+00 0 0 0
640 1 7.6524637312221948e+00 -1.2796755162726974e+01 -3.7568249541071097e+00 0 0 0
1237 2 8.5956235959206673e+00 -1.0132579391869688e+01 -3.7061724767754640e+00 0 0 0
1408 3 6.5292313629035768e+00 -1.3918150676490781e+01 -1.1685091642822236e+00 0 0 0
1219 2 9.8182467694873132e+00 -1.1506345060619850e+01 -2.1157486842044140e+00 0 0 0
1178 2 1.3942931820315280e+01 -1.3455593236365631e+01 -4.0034580242953410e-01 0 1 0
214 1 1.1365256903790623e+01 -1.0794672101623652e+01 -4.6775650025374258e+00 0 0 0
500 1 1.3347757230828257e+01 -1.4131557869287033e+01 -4.3790143751955668e+00 0 0 0
797 2 1.2280216294041612e+01 -1.4374166918030372e+01 -1.8145242710886240e+00 0 0 0
906 2 1.3580006149996628e+01 -1.0940349048307207e+01 -2.4214190090744125e-01 0 0 0
1021 2 1.0685348803837822e+01 -1.3413830207549713e+01 -3.7743021665729977e+00 0 0 0
1080 2 1.3919055245908368e+01 -1.1515016204901219e+01 -4.1405979557902963e+00 0 0 0
1110 2 1.2345860735642198e+01 -1.1962195472974761e+01 -2.2492843026289346e+00 0 0 0
1348 2 -1.3710965669779114e+01 -9.7344207656986335e+00 -3.8024727242527412e-01 0 0 0
1339 2 -1.3682358296160247e+01 -6.8058481865762843e+00 -4.4113509316197472e+00 0 0 0
132 1 -1.3312625179005341e+01 -6.9175196230716365e+00 -1.5532766454990394e+00 0 0 0
517 1 -1.1243342990849747e+01 -8.0429503721557616e+00 -4.2365567548503833e+00 0 0 0
567 1 -1.1138840518000798e+01 -9.1193534574132702e+00 -1.0055589498955886e+00 0 0 0
683 1 -1.1107190942319665e+01 -5.0296815734941180e+00 -2.7647732442667259e+00 0 0 0
730 2 -1.3306086832408084e+01 -9.3459437941200356e+00 -2.9072027969785150e+00 0 0 0
523 1 -7.6648039094569143e+00 -8.4195474858216457e+00 -6.4234615908315007e-01 0 0 0
675 1 -7.9473505863284020e+00 -8.6848146059109830e+00 -4.0973793388220496e+00 0 0 0
901 2 -9.5443913077182430e+00 -7.2370230351319496e+00 -2.2343225487662881e+00 0 0 0
1064 2 -9.2515916564430114e+00 -6.0226284168405524e+00 -4.6340727890191822e+00 0 0 0
1169 2 -5.8016628212315755e+00 -5.9554580270135027e+00 -8.3818253211209282e-01 0 0 0
1419 3 -7.0854700060476263e+00 -6.1582349459229029e+00 -3.0576608229965725e+00 0 0 0
1007 2 -8.3557763980378361e+00 -5.5439473728445723e+00 -8.8315076142426285e-01 0 0 0
162 1 -4.9205359881570345e+00 -9.6023654403426768e+00 -7.5045242262242162e-01 0 0 0
1005 2 -2.1438107189577771e+00 -9.5043159828476220e+00 -4.5680938599020848e+00 0 0 0
313 1 -1.0958630357226973e+00 -7.5757331806525867e+00 -2.6438125671902153e+00 0 0 0
372 1 -4.2631477135904650e+00 -7.1777653730930115e+00 -2.7710569848732547e+00 0 0 0
1156 2 -1.7039980438922786e+00 -5.1020062759783418e+00 -4.5408093457664656e-01 0 0 0
32 1 3.8995464889889710e+00 -7.0243156408396707e+00 -4.7617035640706700e+00 0 0 0
207 1 1.9703265350956407e+00 -7.8178782566298386e+00 -2.4992740226187404e+00 0 0 0
586 1 5.9316497426612358e-01 -6.1164238382742973e+00 -4.8186355900224189e+00 0 0 0
1331 2 3.4758455506227719e+00 -5.2184579074519384e+00 -2.6706569191867331e+00 0 0 0
377 1 8.3124009997021453e-01 -4.9813027366766303e+00 -1.9586474316848133e+00 0 0 0
290 1 7.1359268184905957e+00 -7.9649325021573523e+00 -4.4774247455353269e+00 0 0 0
403 1 4.9731126434530388e+00 -8.0381357736519181e+00 -1.8805963897238254e+00 0 0 0
280 1 6.2822241296282577e+00 -5.6040495366243928e+00 -3.0151681175166178e+00 0 0 0
406 1 8.0624155438937386e+00 -8.1094599651066197e+00 -1.4667988097122198e+00 0 0 0
1149 2 8.9968020215249354e+00 -6.0191506093118221e+00 -3.2553824905221092e+00 0 0 0
532 1 8.2625895211277438e+00 -4.9516280189924089e+00 -7.5209465045805146e-01 0 0 0
832 2 1.3918057725531035e+01 -5.2216372403818152e+00 -9.9272529864372672e-01 0 0 0
94 1 1.0712779960035736e+01 -9.5994356107443863e+00 -4.0289781598851171e-01 0 0 0
197 1 1.1084244282025157e+01 -6.2912443651984873e+00 -8.0126534749489942e-01 0 0 0
314 1 1.3355889903392075e+01 -9.2611592908596485e+00 -2.4950498056230668e+00 0 0 0
692 1 1.0526523823506846e+01 -8.2218081301494514e+00 -3.0980357446352684e+00 0 0 0
535 1 1.3173853143489278e+01 -6.3107932552183037e+00 -3.3506962480406930e+00 0 0 0
796 2 -1.2588659782859207e+01 -3.0012413826113722e+00 -4.8139259974669333e+00 0 0 0
387 1 -1.1566500398417086e+01 -3.9436804485313282e-01 -4.5124147243072503e+00 0 0 0
611 1 -1.0874763240970996e+01 -1.9833629531398973e+00 -2.1263572702088478e+00 0 0 0
729 2 -1.2703980519421433e+01 -1.8062413737326999e+00 -1.6467635259006386e-01 0 0 0
937 2 -1.3594849120829286e+01 -2.2785007063508509e+00 -2.6143447172769054e+00 0 0 0
1257 2 -1.3928198828655322e+01 -4.6466124484825535e+00 -3.1716694834658252e+00 0 0 0
785 2 -1.2979821965265458e+01 -4.1478352684939459e+00 -8.7532274857799308e-01 1 0 0
1195 2 -5.6390766534487131e+00 -4.0401184002938866e+00 -2.9169756062905154e+00 0 0 0
639 1 -5.9972715349245931e+00 -1.1966981250497355e+00 -1.4382161937096178e+00 0 0 0
218 1 -8.5895009318441602e+00 -1.5700816256931738e-01 -3.3006478768123824e+00 0 0 0
558 1 -8.1609840765746462e+00 -3.3280591684841685e+00 -2.4467682746910562e+00 0 0 0
1163 2 -8.5775679447836879e+00 -1.3636149072112165e+00 -4.1623021164242502e-01 0 0 0
756 2 -6.7060681210028577e+00 -3.6476360109582107e+00 -9.4334121863262510e-02 0 0 0
954 2 -1.5344063409051767e+00 -5.2651879894730413e-02 -2.7781368196366216e+00 0 0 0
26 1 -2.1318364893716151e+00 -4.7660349189629265e+00 -3.2593806863518644e+00 0 0 0
1159 2 -1.2550260833261841e+00 -1.7653009651887519e+00 -4.4652625244980406e+00 0 0 0
68 1 -3.7591957969894647e+00 -1.9568200497970683e+00 -3.6873839794779251e+00 0 0 0
648 1 -1.0108205773546288e+00 -2.4504799846640672e+00 -1.6152966644692146e+00 0 0 0
1259 2 -3.2343195515574390e+00 -7.7553154841825211e-01 -7.7352354895297992e-01 0 0 0
369 1 -3.9287610116388496e+00 -3.5814432059905386e+00 -9.8725968943606546e-01 0 0 0
912 2 4.9122946013468294e-01 -3.4167005945094591e+00 -4.1488738570075157e+00 0 0 0
792 2 8.7723907209227470e-01 -8.8797175508395298e-01 -3.3489057226263945e+00 0 0 0
1322 2 1.4019159837530353e+00 -1.6469466938269068e+00 -6.9994441552063869e-01 0 0 0
1333 2 2.5826470922495623e+00 -2.6425793840827421e+00 -2.9947512040038280e+00 0 0 0
1072 2 2.9209891631601472e+00 -3.5226246987569549e+00 -6.4572994118672433e-01 0 0 0
814 2 4.7768303339356670e+00 -2.0386158782720312e+00 -1.8622440622201459e+00 0 0 0
264 1 8.0799658194522230e+00 -3.7331838934253785e+00 -4.7137620631935384e+00 0 0 0
1073 2 5.0941799594759978e+00 -3.3867607097671897e+00 -3.9287151447403765e+00 0 0 0
1200 2 5.2708630304922153e+00 -4.4299655509451021e+00 -9.3183845794405684e-01 0 0 0
1247 2 7.1934745765859809e+00 -2.8159249846614376e+00 -2.2666196898619795e+00 0 0 0
951 2 6.3740029937593476e+00 -1.2314267845548112e+00 -4.0992055564458685e+00 0 0 0
334 1 8.9920976303549445e+00 -8.7162454625954133e-01 -3.2210216021857079e+00 0 0 0
544 1 9.6426235317858229e+00 -2.2039787033262677e+00 -4.9244586644550203e-01 0 0 0
237 1 1.4614934940999472e+01 -7.5694504267332263e-02 -4.0625799576049655e+00 0 0 0
296 1 1.1525963916097467e+01 -1.3045573147363481e+00 -4.7317130988825529e+00 0 0 0
316 1 1.1996736026058915e+01 -8.1899316970635994e-01 -1.7412177918006169e+00 0 0 0
786 2 1.3388931597843548e+01 -3.1777784568427787e+00 -2.4603304623738449e+00 0 0 0
209 1 1.0643067738140498e+01 -3.8329485234998408e+00 -2.9486776048393306e+00 0 0 0
888 2 1.4378288224498380e+01 -2.6433063236781500e+00 -4.6608544337016795e+00 0 0 0
772 2 1.4497209653278791e+01 -9.3205131309811406e-01 -1.0094957786886809e+00 0 0 0
841 2 1.1958462105984424e+01 -3.7350948097670109e+00 -3.9586611293597329e-01 0 0 0
1140 2 -2.0902259771818930e+00 -1.4725583331398621e+01 -1.2173739451384829e+01 0 1 0
252 1 -2.9371284876044985e+00 -7.4890556444482703e+00 -1.1304666864338841e-02 0 0 0