EAM only MC model

    1425 atoms
     3 atom types
-14.1423 14.1423 xlo xhi
-14.1423 14.1423 ylo yhi
-14.1423 14.1423 zlo zhi


Atoms

1 1 0.512637 13.9471 2.34713 
2 1 -8.24562 1.94439 1.56443 
3 1 5.71922 1.29238 -0.354553 
4 1 -3.44925 2.33034 -0.433804 
5 1 -4.42886 5.19398 9.76752 
6 1 6.80913 6.76137 5.32749 
7 1 -8.52252 11.5882 9.75887 
8 1 -8.46044 -4.38695 10.5659 
9 1 4.77271 3.69316 1.1588 
10 1 -9.11002 -9.47537 -13.9464 
11 1 -9.74197 -13.7984 -12.5791 
12 1 3.12365 3.44326 -7.00077 
13 1 2.25113 7.14997 5.70315 
14 1 5.63923 11.3762 -0.715599 
15 1 -4.44134 7.43157 -2.29561 
16 1 -10.3914 4.8343 -4.68968 
17 1 14.1066 0.762029 -11.2656 
18 1 3.96622 0.0940701 -12.9381 
19 1 10.1773 -7.49726 6.54886 
20 1 -12.0062 6.80458 10.2919 
21 1 7.65637 -0.948503 3.16325 
22 1 0.0133252 -7.26229 -5.52012 
23 1 8.73265 11.8375 11.0501 
24 1 1.30135 -3.77313 -10.5976 
25 1 8.00666 0.823859 9.0069 
26 1 -2.45466 -4.98062 -2.65371 
27 1 6.04154 -5.04671 -13.2281 
28 1 10.1625 -12.3185 2.91711 
29 1 -5.17983 -7.8164 5.15958 
30 1 -9.87463 7.68179 -12.0604 
31 1 -2.99297 10.6647 -3.4136 
32 1 3.17344 -6.84813 -4.89936 
33 1 13.1662 -9.24928 -7.51278 
34 1 -12.9727 10.0288 -1.93343 
35 1 0.126308 -9.57312 -0.34358 
36 1 3.9388 4.36695 8.50121 
37 1 -8.05336 6.31517 -14.0301 
38 1 -10.1158 -11.8883 -7.09779 
39 1 -4.18897 2.36461 5.58993 
40 1 12.0169 1.77745 12.9503 
41 1 11.2119 -6.95127 11.7196 
42 1 8.36609 13.9191 -5.40275 
43 1 -9.91557 11.373 -9.12614 
44 1 9.01219 -13.7114 -2.04663 
45 1 4.86281 -5.08808 6.49684 
46 1 2.29054 -11.2126 0.985677 
47 1 9.49223 9.29161 4.48588 
48 1 5.94702 3.00781 10.3891 
49 1 4.86021 -7.69464 5.12196 
50 1 7.71917 -4.83876 1.74754 
51 1 -11.9431 2.95986 -2.95909 
52 1 0.11477 -8.04014 -11.6774 
53 1 -11.5103 0.0542701 -10.7254 
54 1 0.0425552 7.93434 -5.0277 
55 1 -6.47793 -12.8149 4.43355 
56 1 -14.0673 7.84167 -4.16255 
57 1 9.78592 0.345929 -7.8155 
58 1 -12.8519 -1.09754 -5.90007 
59 1 -6.83988 -4.05906 7.69112 
60 1 13.802 -9.24226 -4.59469 
61 1 -8.74361 -5.09112 13.3965 
62 1 -2.56433 -9.19485 -12.4785 
63 1 -7.26243 -1.02751 1.7748 
64 1 -13.7295 -2.10233 10.6617 
65 1 1.79638 -4.64765 5.48238 
66 1 -2.14265 -9.29184 8.80123 
67 1 -8.06319 13.3445 11.9835 
68 1 -4.24121 -2.23037 -2.95606 
69 1 1.81284 13.8404 -10.0667 
70 1 3.20959 0.849982 4.11291 
71 1 0.472121 -5.74389 2.75456 
72 1 -9.71825 -13.6812 4.24003 
73 1 -9.64495 -5.48034 -10.1981 
74 1 -6.71519 -0.919413 7.96906 
75 1 11.5883 12.7145 12.7447 
76 1 10.1472 3.70263 13.7559 
77 1 -3.30486 -0.169606 1.30084 
78 1 11.4111 10.4474 -12.6377 
79 1 -9.28465 -3.11997 -4.10275 
80 1 -5.07933 -1.87306 -13.1374 
81 1 -8.11042 10.5979 -0.483765 
82 1 -10.0291 9.73834 1.40595 
83 1 6.38353 -5.05248 10.2155 
84 1 7.66039 10.9342 1.35249 
85 1 2.14473 6.99655 -12.5521 
86 1 -5.7732 1.12726 0.810717 
87 1 -7.24259 -11.8582 -3.84933 
88 1 -12.7892 -14.0907 8.33766 
89 1 4.81133 -9.54108 0.609959 
90 1 -1.2648 7.18726 -7.59683 
91 1 2.31415 4.03342 5.96068 
92 1 -1.57091 1.85365 -5.55659 
93 1 3.08976 12.6416 -12.6087 
94 1 10.5716 -9.49462 -0.617244 
95 1 -2.09561 8.80351 8.70312 
96 1 0.423189 -3.36526 -13.2333 
97 1 7.61122 -5.95869 5.37333 
98 1 -2.09887 0.640628 3.49918 
99 1 7.31124 -10.7503 2.98429 
100 1 12.4222 12.9075 -10.7483 
101 1 -2.65306 5.34214 4.79562 
102 1 -11.4251 -3.19722 -10.9676 
103 1 2.41903 -5.07486 -8.31553 
104 1 12.6357 -4.38609 -6.93305 
105 1 -9.54704 -7.62125 3.16987 
106 1 -1.45487 11.7256 -6.22815 
107 1 14.0231 -11.2158 13.9008 
108 1 2.83689 8.52456 -10.0065 
109 1 9.45483 13.2534 -9.83686 
110 1 -6.4754 -2.06099 -4.93168 
111 1 -7.96772 9.21235 -10.0041 
112 1 11.1663 2.14944 -11.6826 
113 1 3.21286 -2.37419 -8.53359 
114 1 5.74112 13.8828 11.0045 
115 1 -10.1331 6.44695 6.35865 
116 1 -9.20716 -2.52916 8.65897 
117 1 -10.7035 -12.7577 6.69927 
118 1 -11.824 -11.065 -4.47781 
119 1 -10.8026 -6.8917 0.0562699 
120 1 -2.95635 8.49119 6.10464 
121 1 -2.11216 2.43887 -8.52689 
122 1 5.47957 -10.798 7.98938 
123 1 -13.5586 11.1775 -4.40492 
124 1 2.0488 0.387577 6.69411 
125 1 13.1028 3.40033 -13.2323 
126 1 5.19197 -5.30276 3.34078 
127 1 10.8907 5.67995 -12.6047 
128 1 0.209329 -1.67649 7.00484 
129 1 -5.35943 6.23909 2.08548 
130 1 -6.74989 -9.97998 -6.25736 
131 1 13.4123 -8.35107 13.4843 
132 1 -13.4649 -5.56354 0.15928 
133 1 7.72086 -1.01493 -6.82506 
134 1 -6.77528 12.3451 -7.68201 
135 1 3.63166 -12.2595 5.13177 
136 1 -12.1957 -9.53069 -6.73437 
137 1 -5.04485 13.3113 13.0601 
138 1 -5.13847 -1.7468 3.51503 
139 1 -4.6896 -9.88846 -3.87607 
140 1 -13.9803 9.13276 -6.74219 
141 1 -2.4773 9.93123 -8.28883 
142 1 -2.97429 -6.69898 -5.28977 
143 1 6.28708 -11.9974 13.0724 
144 1 -13.7999 1.79695 8.95608 
145 1 -5.52947 -5.31132 -9.38723 
146 1 10.8821 -12.7534 -10.7363 
147 1 -10.5815 -1.18213 1.36837 
148 1 11.1603 7.81354 2.75099 
149 1 3.17691 1.44196 -1.38494 
150 1 -13.1423 5.9325 12.924 
151 1 2.88537 -6.86212 -10.6281 
152 1 7.34317 8.92173 -11.1343 
153 1 3.46908 12.3801 0.818452 
154 1 -11.0132 -7.93084 6.14172 
155 1 5.72099 -5.9509 -6.02798 
156 1 11.7357 -10.0363 11.6768 
157 1 8.36182 -3.68612 3.51657 
158 1 3.07563 10.0994 8.99729 
159 1 3.79275 -1.55025 -0.0661301 
160 1 2.80979 -5.37604 -1.19205 
161 1 11.8348 5.26906 0.875798 
162 1 -4.4858 -9.61423 -0.460415 
163 1 5.15187 -2.81077 8.6892 
164 1 4.02976 -10.0614 -8.4719 
165 1 -7.14007 -9.24468 3.48778 
166 1 8.09995 4.03452 -8.39684 
167 1 -4.93317 6.00384 -4.97187 
168 1 -10.9826 -13.9434 12.7932 
169 1 10.7486 -9.65082 -9.84904 
170 1 -5.20079 3.1034 12.008 
171 1 -6.31478 1.0401 10.2693 
172 1 6.28016 12.2872 -7.16924 
173 1 -11.6959 11.1503 3.41965 
174 1 3.34334 -4.29036 -6.08092 
175 1 -0.126084 -10.0535 -6.11717 
176 1 -6.06591 7.67871 -8.76732 
177 1 13.8107 2.30425 3.36292 
178 1 -3.41311 7.24723 12.8206 
179 1 -10.917 -9.79976 1.50809 
180 1 4.37171 5.81161 10.6995 
181 1 10.587 -13.8174 7.6056 
182 1 -10.5375 0.179724 -14.0821 
183 1 13.6492 -7.79974 10.141 
184 1 2.24617 -12.9633 -2.14323 
185 1 -10.5036 2.90859 -9.8865 
186 1 -13.3603 -4.43895 -9.07814 
187 1 1.23872 -1.15726 11.6057 
188 1 0.272792 -12.803 -7.55551 
189 1 -10.3571 -12.4706 -10.1959 
190 1 -8.03818 -6.25932 1.12008 
191 1 -10.0992 -7.72268 13.0073 
192 1 4.04458 2.9365 -12.7652 
193 1 -4.70038 -10.6441 5.15844 
194 1 7.26746 9.30569 6.53388 
195 1 0.3146 -10.4925 -3.13738 
196 1 -2.57649 -13.626 -7.19531 
197 1 10.8432 -6.45841 -1.16136 
198 1 -2.61882 13.7508 -13.6859 
199 1 8.44885 0.702641 -1.76229 
200 1 -3.06679 2.47074 10.3978 
201 1 -8.09641 9.98061 -7.37333 
202 1 3.59087 -1.10007 -5.67128 
203 1 -3.55484 -4.1463 13.5572 
204 1 4.48767 -10.0642 10.5027 
205 1 1.07899 1.83829 -12.0519 
206 1 0.507573 9.09919 1.40556 
207 1 1.35894 -7.69095 -2.51036 
208 1 -8.96833 -11.5548 8.52426 
209 1 9.88611 -3.99376 -3.13392 
210 1 -4.58831 9.13575 -13.0055 
211 1 4.80439 -12.9669 1.98955 
212 1 -1.94121 12.7591 4.69355 
213 1 -6.10447 -6.31219 9.54919 
214 1 10.8555 -10.1505 -3.26634 
215 1 -13.3419 1.31006 -14.0508 
216 1 -11.7178 -9.8012 9.95976 
217 1 13.3959 13.7006 4.89701 
218 1 -8.36164 -0.128116 -3.49856 
219 1 -2.10129 8.6821 -11.1711 
220 1 -6.02806 -12.3214 7.43361 
221 1 -1.69228 -3.76217 -5.22388 
222 1 4.32332 -10.2577 3.21315 
223 1 -5.28105 1.18892 3.2845 
224 1 -3.5449 10.5723 10.3478 
225 1 -6.01165 13.4541 -0.566514 
226 1 1.56525 0.935908 -5.02544 
227 1 4.58076 7.85199 -4.41489 
228 1 10.8096 6.9784 12.7391 
229 1 6.90845 -7.08048 7.72699 
230 1 -8.76748 -3.34282 0.577415 
231 1 -1.67058 8.27989 -2.89572 
232 1 8.91761 -6.92104 9.93337 
233 1 12.4048 -10.6735 -12.2992 
234 1 -13.6487 3.25541 12.0054 
235 1 2.36857 -8.08083 -13.6292 
236 1 6.46047 -7.15526 12.6006 
237 1 13.6593 0.0935701 -3.91561 
238 1 2.17967 -7.91613 -7.35462 
239 1 -0.186972 6.62336 12.1214 
240 1 -12.2101 -13.6407 -5.11229 
241 1 7.35722 -2.64581 14.0243 
242 1 -8.97382 7.47044 -0.716145 
243 1 8.02287 9.36152 -0.850707 
244 1 -2.90435 -11.5297 7.37649 
245 1 -12.9747 1.05141 0.9994 
246 1 6.69927 11.6088 -10.0434 
247 1 -13.7529 14.0473 -3.17301 
248 1 13.7675 -13.92 -6.59934 
249 1 -6.15804 -1.16421 -7.91977 
250 1 -12.6073 12.0444 -6.23393 
251 1 6.56962 -2.63359 -9.33896 
252 1 -2.57877 -7.78275 -0.0271101 
253 1 8.27283 -9.64219 8.16529 
254 1 6.73428 2.27192 -13.9463 
255 1 11.4662 -4.04747 12.621 
256 1 -4.23662 4.47613 -14.0165 
257 1 5.33846 -7.88953 -12.6698 
258 1 0.152735 10.5232 -3.89875 
259 1 -10.6861 -5.05587 2.03868 
260 1 11.2932 -13.2113 -14.0145 
261 1 8.43686 2.13071 -11.1006 
262 1 8.67417 5.93995 3.48654 
263 1 -7.45845 -11.7377 -12.8013 
264 1 7.75478 -3.85729 -5.14535 
265 1 -8.364 12.1629 -2.52202 
266 1 2.00484 -12.7495 3.59911 
267 1 -9.49939 10.5977 7.28062 
268 1 0.610082 11.6982 1.20862 
269 1 -8.45218 1.95573 8.06535 
270 1 6.96576 5.29731 -2.81713 
271 1 -2.10164 -2.94508 -13.125 
272 1 5.62571 -6.70746 0.361018 
273 1 12.8087 -1.42897 13.2113 
274 1 -11.9318 8.21561 -0.215647 
275 1 -0.284435 7.10468 6.45657 
276 1 6.73648 12.9749 -3.09476 
277 1 -4.12998 7.569 3.84374 
278 1 -11.5039 -3.79737 -0.736163 
279 1 -0.65507 3.29364 12.2574 
280 1 6.78592 -5.9123 -3.23921 
281 1 8.96736 -13.713 12.0397 
282 1 -6.01386 -4.87481 -12.7481 
283 1 13.2299 -7.39284 7.21581 
284 1 3.35727 -12.0298 12.5302 
285 1 -5.95533 8.90989 12.6168 
286 1 7.68312 13.8209 6.39172 
287 1 8.85872 -11.8926 5.52093 
288 1 -8.92658 -0.586515 3.75041 
289 1 -1.25075 4.47012 -0.306365 
290 1 6.86025 -8.45749 -4.96774 
291 1 6.85504 -11.7885 10.3769 
292 1 -11.3839 13.9799 -7.68912 
293 1 0.0458552 13.6915 -12.0631 
294 1 7.65806 -13.6543 3.05101 
295 1 -4.41613 -6.98956 -11.6276 
296 1 10.0695 0.152038 -4.85055 
297 1 5.02135 6.25314 -9.26698 
298 1 7.58992 6.82956 -9.16913 
299 1 4.72709 -9.73219 -4.15433 
300 1 1.79195 -8.5877 2.1055 
301 1 -9.27966 1.85721 -5.59095 
302 1 10.6469 -2.70587 7.96349 
303 1 -9.81957 -2.50611 13.8662 
304 1 4.72466 -11.6527 -6.17819 
305 1 -10.4328 -5.32308 -5.55898 
306 1 -9.51498 -13.8166 -4.71109 
307 1 -7.22018 8.45339 1.62037 
308 1 10.2568 12.9191 -12.4687 
309 1 -12.5808 4.32299 9.37535 
310 1 5.62633 -0.73777 -2.35755 
311 1 -10.4642 3.36176 0.285804 
312 1 7.41551 5.77253 10.2503 
313 1 -1.16875 -7.62914 -2.78026 
314 1 13.8966 -6.99261 -2.31645 
315 1 -4.73802 -13.1008 -11.9847 
316 1 11.2098 -0.480211 -2.26287 
317 1 -11.7197 1.17582 11.3628 
318 1 -12.4366 8.10281 2.80525 
319 1 -3.39571 11.4796 -10.4902 
320 1 -10.6358 0.95029 -1.00471 
321 1 -2.16393 5.86007 7.76522 
322 1 -9.58763 7.3993 3.45776 
323 1 -5.64662 -3.02863 9.97057 
324 1 9.44687 1.0349 2.66258 
325 1 2.66766 -9.70361 -11.1026 
326 1 -2.84825 10.3183 3.71432 
327 1 1.6868 10.0312 -1.42171 
328 1 -8.53368 0.988841 12.4839 
329 1 8.10952 -6.76427 -12.7458 
330 1 -14.0533 13.9727 12.9439 
331 1 0.887014 12.605 -1.50459 
332 1 1.17125 12.5895 -7.71108 
333 1 -2.03052 -12.0043 -4.71239 
334 1 8.1908 -1.33768 -3.87423 
335 1 -9.32488 -8.51493 8.34051 
336 1 -8.17276 3.76098 12.3411 
337 1 -10.7613 11.3293 12.2444 
338 1 5.00987 0.22488 8.32453 
339 1 8.534 7.00163 7.99231 
340 1 1.96752 7.69057 -2.84285 
341 1 8.5493 -9.36335 11.2711 
342 1 -8.96419 -5.96501 7.87541 
343 1 2.75809 10.5455 3.3896 
344 1 2.20479 -13.7454 0.423793 
345 1 0.227013 4.54446 -7.89941 
346 1 -10.7821 -1.8627 11.4541 
347 1 -11.1374 -10.9232 12.6787 
348 1 -4.10005 12.6602 -7.92492 
349 1 -4.64108 -11.9034 -6.17547 
350 1 13.2654 4.8558 -1.76508 
351 1 -6.61886 0.104176 -11.2736 
352 1 11.4936 -1.81129 10.6114 
353 1 -5.86545 -11.9268 -1.71454 
354 1 10.4151 2.76564 -0.147431 
355 1 -1.29996 0.379425 11.3033 
356 1 -12.9001 -11.7172 -8.64294 
357 1 -7.29111 4.08898 9.62819 
358 1 -13.8706 13.7279 -9.25117 
359 1 -9.01088 -12.2924 11.0443 
360 1 0.12275 -6.6886 -9.01085 
361 1 13.4947 7.92679 0.640013 
362 1 -8.24462 -3.78236 -11.9073 
363 1 10.458 9.93999 12.6559 
364 1 -10.7852 7.46914 -3.1196 
365 1 -11.216 -4.84626 12.2909 
366 1 12.2313 8.04865 -11.2067 
367 1 10.5198 4.74314 -6.02729 
368 1 -11.4116 5.87502 -10.1697 
369 1 -5.28996 -2.39238 0.416762 
370 1 -7.10584 12.5593 4.49479 
371 1 3.94698 9.72296 6.12091 
372 1 -4.16335 -7.38945 -2.61057 
373 1 8.09512 -5.03565 -7.81642 
374 1 -2.96961 -13.0742 -1.37452 
375 1 -11.7076 3.81881 6.62663 
376 1 6.81129 9.93682 -3.32654 
377 1 -0.286753 -4.32176 -1.40145 
378 1 4.48397 -10.7442 -13.2443 
379 1 -7.38765 -13.1486 -6.425 
380 1 12.5351 -4.66094 10.0321 
381 1 -3.34245 3.17891 2.30229 
382 1 12.8572 9.95191 7.94277 
383 1 0.843185 0.126928 2.36651 
384 1 -3.39627 -12.6172 3.09953 
385 1 9.20097 -7.02072 -9.76279 
386 1 11.9924 -12.3374 11.9231 
387 1 -11.1798 -0.237944 -4.05554 
388 1 9.50449 -1.31851 5.42566 
389 1 -5.75376 12.1989 8.56928 
390 1 -9.20446 7.0391 -6.90212 
391 1 8.9153 3.07515 -3.44888 
392 1 -10.7047 -7.43035 -7.94746 
393 1 7.85662 -1.81454 7.94901 
394 1 1.87884 -7.10466 11.2764 
395 1 11.627 2.19252 -5.91094 
396 1 6.88174 13.2975 13.624 
397 1 -8.4452 10.1107 4.03307 
398 1 -0.270777 -2.46061 9.82521 
399 1 -10.1734 11.3913 -4.54844 
400 1 5.22303 7.52601 7.94374 
401 1 -2.18587 -1.88975 5.21095 
402 1 -5.72672 -8.6047 -9.87679 
403 1 4.5621 -7.48738 -2.29883 
404 1 -7.6238 -1.64261 11.656 
405 1 6.46201 4.22889 -10.8008 
406 1 8.33423 -8.11271 -2.02988 
407 1 4.75148 8.42352 10.7282 
408 1 5.72131 -13.7333 8.12016 
409 1 -6.02449 -4.92639 12.4023 
410 1 4.99789 8.7782 13.3276 
411 1 2.56262 -0.685857 -2.80076 
412 1 4.66536 -14.1199 -4.62411 
413 1 12.0123 7.32152 -6.58543 
414 1 13.771 2.97236 -4.07053 
415 1 -5.81132 11.036 -2.64364 
416 1 11.3762 11.6687 6.06188 
417 1 7.46252 -9.22171 -10.3566 
418 1 -12.7915 -10.1611 5.64847 
419 1 -4.74613 10.9931 -5.54036 
420 1 -1.24086 13.2232 -9.03116 
421 1 13.1798 -0.401713 8.89431 
422 1 11.0127 -9.65644 3.79937 
423 1 -6.65128 5.07064 -9.78203 
424 1 -1.62037 -0.498001 -9.68492 
425 1 2.4599 -3.47973 12.8563 
426 1 -3.40365 -4.70807 10.6382 
427 1 2.54202 5.76894 -9.02195 
428 1 -1.79799 -6.22843 -13.1923 
429 1 13.0765 1.95111 -1.13996 
430 1 -13.384 -6.69913 -7.2056 
431 1 -12.2952 12.4857 6.41324 
432 1 2.02465 1.89541 13.3548 
433 1 13.6433 -13.6331 -12.5605 
434 1 -6.98735 14.0766 -13.577 
435 1 4.52796 -9.01933 12.7976 
436 1 -4.55866 6.2909 -11.2013 
437 1 8.7941 7.10326 -6.57021 
438 1 6.26457 -9.97365 -1.87005 
439 1 -4.76956 -9.27534 10.6277 
440 1 -0.0393448 -8.02451 4.47276 
441 1 -3.16819 12.1569 -0.844874 
442 1 2.36646 5.95816 -5.82241 
443 1 0.740199 2.18756 4.52445 
444 1 -1.95496 13.0636 9.53525 
445 1 12.4787 9.00965 -2.04636 
446 1 -12.4565 -1.63096 -13.0188 
447 1 -3.19577 -5.02409 0.380093 
448 1 8.52674 1.94716 11.8752 
449 1 1.64413 13.2677 -4.25165 
450 1 10.8955 -5.23648 2.5027 
451 1 -13.9855 -9.96758 2.6641 
452 1 12.8865 11.884 -2.18586 
453 1 -4.92733 2.25437 -12.2711 
454 1 2.49053 7.06264 8.24586 
455 1 5.05781 7.81888 -11.7914 
456 1 6.72625 2.73303 7.48549 
457 1 -12.8458 -3.11744 2.02619 
458 1 7.31552 -10.4662 -7.2785 
459 1 10.0536 10.748 1.86048 
460 1 0.701362 9.20248 -12.0555 
461 1 -0.207632 7.88994 -0.718208 
462 1 -9.20075 12.9468 0.326135 
463 1 -2.41827 8.19832 1.46474 
464 1 -13.9067 -8.43669 -11.8265 
465 1 -6.65604 11.61 1.71894 
466 1 0.197142 -2.83921 3.62017 
467 1 12.1508 -11.9916 -8.10557 
468 1 -6.97951 2.39831 -3.50135 
469 1 -4.93817 12.1151 -12.4098 
470 1 -14.1007 10.7513 5.2764 
471 1 7.52058 4.41303 -5.65436 
472 1 6.54295 9.11844 -6.36324 
473 1 1.43364 -3.31172 0.856465 
474 1 -10.8273 0.344041 -7.61239 
475 1 2.27712 -9.45786 -4.83373 
476 1 -1.4734 -12.2624 9.82232 
477 1 3.09822 -5.50488 8.62523 
478 1 -1.09716 2.54062 -2.65859 
479 1 10.1809 -1.26879 -13.1472 
480 1 12.2782 0.654617 1.29778 
481 1 5.68 -2.89644 -6.83738 
482 1 -12.2456 -6.35921 -10.5672 
483 1 7.68866 10.2335 13.4908 
484 1 -10.4806 -12.9766 1.28231 
485 1 -12.8486 4.32821 -5.97107 
486 1 3.33049 -5.0543 -13.0603 
487 1 -11.1211 9.22212 5.39821 
488 1 12.2705 8.81701 10.6821 
489 1 -4.41513 -8.83222 -6.6951 
490 1 -6.99043 0.0900701 5.16522 
491 1 7.64239 -9.61592 14.111 
492 1 -9.74371 1.59781 5.73644 
493 1 10.4901 8.49966 0.0494699 
494 1 4.11436 -13.858 -8.12949 
495 1 10.0993 13.3336 4.55718 
496 1 10.4272 6.8611 5.68694 
497 1 13.7195 4.71961 7.78332 
498 1 -13.0034 3.39592 -11.3143 
499 1 10.5602 2.95563 -8.79099 
500 1 13.0512 -11.9556 -4.12206 
501 1 -9.17552 -1.42361 -11.8319 
502 1 12.8218 -3.61915 -10.1705 
503 1 8.10771 7.96316 12.0162 
504 1 7.16222 -0.0709299 -12.6925 
505 1 -3.94839 -8.9101 2.57465 
506 1 13.8185 5.83107 3.05097 
507 1 -3.98384 -2.578 -8.84016 
508 1 -4.26801 -11.8828 13.5132 
509 1 -12.537 -6.45297 -13.6468 
510 1 6.53901 9.34369 3.59839 
511 1 9.48637 8.27511 -13.0537 
512 1 4.97968 6.17161 0.198903 
513 1 -12.8978 8.14033 -11.6485 
514 1 -10.2483 8.0909 13.2063 
515 1 -8.78134 -9.3425 10.9557 
516 1 -9.84795 -10.4123 4.66254 
517 1 -10.4226 -8.416 -4.60874 
518 1 -4.43413 0.533418 -9.65858 
519 1 10.8265 -10.7765 6.71058 
520 1 3.42508 1.1145 1.60312 
521 1 2.38086 -8.50625 8.9937 
522 1 -0.947536 1.47894 0.632843 
523 1 -6.83015 -8.80978 -1.29096 
524 1 -0.400316 5.58489 -3.00765 
525 1 -0.97655 -0.773548 -12.2192 
526 1 0.231811 4.35014 -13.3446 
527 1 0.876062 -2.19243 -6.17089 
528 1 -0.825602 -4.20027 12.2735 
529 1 1.52365 11.3932 7.00907 
530 1 9.30164 1.42809 6.13777 
531 1 3.8094 12.9728 6.14346 
532 1 8.17573 -5.10568 -0.975711 
533 1 12.8206 7.77661 -14.0192 
534 1 12.3902 -0.936 -6.32629 
535 1 12.4126 -4.86681 -3.6976 
536 1 -10.2012 4.38045 4.04378 
537 1 -10.6035 1.51941 2.79598 
538 1 -4.3261 4.98149 -0.0784301 
539 1 2.06003 7.69208 2.99261 
540 1 -4.50369 12.9606 3.58392 
541 1 -6.91263 -10.6555 12.6248 
542 1 -9.73353 -6.56203 -12.5681 
543 1 -4.00306 -0.18894 6.08464 
544 1 9.26849 -2.26945 -1.36336 
545 1 -7.53194 4.63064 -4.67298 
546 1 9.39972 -3.94341 9.95926 
547 1 -7.82939 12.6291 -11.1896 
548 1 -9.897 9.10585 10.2838 
549 1 -7.23923 -9.78146 6.54279 
550 1 -1.9831 -0.0931299 8.44078 
551 1 -8.24966 -5.75252 -7.93939 
552 1 11.5613 0.787353 4.34238 
553 1 -2.54497 4.61639 -6.86294 
554 1 9.16846 -11.9144 0.405954 
555 1 1.53345 -0.865027 -10.9016 
556 1 -1.02946 -5.28937 8.93611 
557 1 0.753439 -9.77836 -8.92363 
558 1 -7.13279 -2.22267 -1.69864 
559 1 11.4603 2.33367 7.94247 
560 1 2.96494 -10.1251 -1.7729 
561 1 -11.7132 5.48764 -1.42063 
562 1 14.0815 5.74832 -12.2946 
563 1 -8.93567 -13.3928 -1.72381 
564 1 6.61161 0.345712 5.63121 
565 1 13.024 6.51298 5.75681 
566 1 -2.43997 -10.385 -2.2436 
567 1 -10.1324 -8.99768 -1.58421 
568 1 -10.4872 -2.80593 4.14477 
569 1 -5.59491 0.443556 13.3885 
570 1 11.1727 2.23214 -2.99428 
571 1 -2.79187 -3.0245 7.94136 
572 1 -4.72082 -4.72336 -4.58262 
573 1 -12.4104 3.95387 2.31883 
574 1 -11.1126 9.56965 -7.11381 
575 1 10.0544 -2.82215 -6.44517 
576 1 12.8044 -5.63349 -13.8571 
577 1 6.30088 -2.75071 5.50714 
578 1 6.18657 -9.35246 5.66183 
579 1 -8.06846 8.39696 6.44357 
580 1 5.89242 11.0531 11.084 
581 1 -4.50983 3.11915 -5.14435 
582 1 10.9107 -5.5207 -11.263 
583 1 11.789 -7.87828 -12.1241 
584 1 10.8612 1.07437 10.3545 
585 1 -8.40476 -11.451 2.3778 
586 1 0.863062 -5.0066 -3.7889 
587 1 0.537917 11.3706 -13.6532 
588 1 -5.50364 4.43093 4.07191 
589 1 -5.2706 -9.72241 -13.1146 
590 1 13.3455 -8.40061 0.32084 
591 1 -0.796689 0.878039 14.0819 
592 1 8.85332 3.45238 9.17504 
593 1 9.72663 13.427 1.12832 
594 1 -7.67738 -11.0899 -8.77368 
595 1 -2.19414 3.12595 7.64827 
596 1 12.3607 -2.13443 5.67088 
597 1 4.34994 2.2722 6.3963 
598 1 13.8684 6.40762 -9.31524 
599 1 12.4184 0.571613 -8.85884 
600 1 0.311507 -11.8004 12.2896 
601 1 -8.69747 -1.01698 -9.048 
602 1 -2.68329 -2.17641 11.0009 
603 1 3.76325 0.243888 10.5029 
604 1 -6.04687 5.78503 12.2082 
605 1 4.4437 9.03386 -1.22515 
606 1 6.05104 -12.1293 5.3606 
607 1 7.77742 11.8499 3.99361 
608 1 -8.57729 14.1347 -8.81893 
609 1 -0.527507 -8.70433 13.5465 
610 1 -10.9718 -8.88421 -11.5493 
611 1 -10.2361 -1.82483 -1.75177 
612 1 -7.76939 13.6723 6.67456 
613 1 8.00279 -4.43403 -10.8331 
614 1 3.4258 10.3736 -3.93863 
615 1 8.43181 -9.11609 5.28556 
616 1 -3.54542 -4.15545 -11.4218 
617 1 -3.99822 2.3622 -2.84348 
618 1 11.2379 7.29497 -3.902 
619 1 -9.1717 0.216901 9.77718 
620 1 3.73544 12.2241 -2.40269 
621 1 -0.421875 11.2308 -10.2991 
622 1 -10.7699 13.4286 10.1207 
623 1 -2.26411 -10.8723 0.829808 
624 1 13.4538 -13.8458 9.95094 
625 1 -7.6983 2.83196 4.18114 
626 1 -0.857815 7.6795 3.7897 
627 1 0.235041 -6.59893 0.171077 
628 1 5.05 3.4776 -2.27379 
629 1 11.8079 3.73867 5.47507 
630 1 10.7028 6.13684 -9.01116 
631 1 11.9637 10.204 -4.88262 
632 1 10.713 -4.64214 5.15068 
633 1 7.50311 9.13503 9.61744 
634 1 9.35976 -13.019 -7.73069 
635 1 9.48314 -7.04455 3.43751 
636 1 6.95968 13.8456 0.240908 
637 1 -3.44926 10.8868 13.2697 
638 1 10.9105 -1.96159 2.71253 
639 1 -6.21137 0.433953 -1.56505 
640 1 7.01104 -12.1229 -4.348 
641 1 -8.03346 1.80878 -8.53952 
642 1 7.63405 3.60825 -0.578004 
643 1 -9.04453 11.8111 -13.9321 
644 1 5.59962 6.16565 -6.65176 
645 1 -6.43097 8.15884 -6.09639 
646 1 -11.6183 -0.579366 8.78803 
647 1 1.0218 12.6446 4.4929 
648 1 -2.5307 -2.40862 -0.644943 
649 1 -13.9741 1.60622 -6.78744 
650 1 -5.05941 -2.84721 6.06572 
651 1 8.46613 11.0165 -5.28915 
652 1 4.36311 -4.12715 -10.6928 
653 1 9.72933 -11.791 9.80458 
654 1 -0.485503 3.87067 2.62027 
655 1 -1.53131 8.98807 14.1084 
656 1 1.43546 2.95067 0.323228 
657 1 11.0897 -7.30571 -7.32395 
658 1 -1.92076 -10.2771 4.04356 
659 1 8.55414 -5.13741 12.5371 
660 1 -8.85527 4.61369 -1.99131 
661 1 10.1898 4.63059 11.2616 
662 1 0.775369 -6.00435 13.5493 
663 1 -1.39549 12.9279 -3.22298 
664 1 6.63178 -2.50004 0.00276992 
665 1 -12.2245 12.9925 -13.2597 
666 1 6.85777 -7.83166 2.8036 
667 1 13.1651 6.14123 10.462 
668 1 12.268 11.7474 10.4615 
669 1 2.31771 0.437686 -8.11585 
670 1 -0.127656 6.52099 -10.4944 
671 1 -13.3304 -11.3438 -1.96753 
672 1 -7.15276 -7.27134 -13.6312 
673 1 -6.80532 9.29664 9.3646 
674 1 -2.41835 -4.62629 4.12967 
675 1 -7.72153 -8.93502 -3.53612 
676 1 2.67571 7.01523 12.9727 
677 1 -0.624835 11.0979 11.7898 
678 1 -0.76975 -12.865 4.98545 
679 1 12.8439 11.5135 -7.59098 
680 1 11.9848 11.0057 3.43432 
681 1 12.935 -6.98054 -9.44465 
682 1 -10.4131 6.08146 1.3497 
683 1 -11.446 -5.97194 -2.70475 
684 1 -11.9266 -6.77396 8.8918 
685 1 -4.51307 5.04423 -7.95278 
686 1 12.8806 10.636 0.545362 
687 1 9.13084 11.9688 -8.03744 
688 1 -10.4244 -5.54708 4.99059 
689 1 -2.03503 2.03851 -11.4291 
690 1 10.8879 5.10323 8.3305 
691 1 -7.84044 -3.78377 3.20866 
692 1 11.4427 -7.76793 -3.89219 
693 1 12.623 3.36534 10.5889 
694 1 -11.3841 12.8089 -2.38977 
695 1 -7.37581 -5.31522 5.25549 
696 1 10.3175 9.46179 -7.3369 
697 1 12.8944 4.34275 -7.56411 
698 1 9.51285 -4.01859 -13.3124 
699 1 8.77423 4.4194 6.18378 
700 1 -2.70656 -2.60046 2.42934 
701 1 -4.86962 7.24965 8.1218 
702 1 -13.5598 -3.64685 13.2961 
703 1 7.20654 0.229631 -9.58563 
704 1 -0.934862 -12.1629 -10.2183 
705 1 -6.68443 0.803819 -6.08188 
706 1 8.5557 -12.8658 -13.2547 
707 1 -12.256 -12.1567 3.36656 
708 1 -12.2736 -7.58705 11.8693 
709 1 -2.19517 -10.772 -7.81423 
710 1 4.59514 -0.767937 -10.4557 
711 1 10.0968 12.2742 -3.51326 
712 1 10.181 11.8922 8.59614 
713 1 11.1006 -9.10685 9.02639 
714 2 -4.07749 -13.8021 8.6847 
715 2 -6.15568 8.66647 -3.6672 
716 2 -2.11736 4.16445 -4.40478 
717 2 1.36414 -12.7923 9.3879 
718 2 7.8275 0.457185 0.772984 
719 2 5.13547 -0.484442 -7.87308 
720 2 8.11215 6.34889 -11.8213 
721 2 -7.94518 5.55392 5.10975 
722 2 1.04723 9.40697 5.1176 
723 2 9.74028 3.31465 4.0201 
724 2 2.09753 11.2195 -10.4278 
725 2 0.0670552 13.9536 11.1421 
726 2 -0.60591 12.7863 6.83652 
727 2 3.00308 -2.9192 10.2051 
728 2 -11.3579 -0.455333 5.22756 
729 2 -12.5148 -1.18853 -0.293852 
730 2 -12.536 -8.91074 -2.85001 
731 2 9.693 -8.77485 -5.52684 
732 2 4.65648 -12.1242 -2.85338 
733 2 4.62613 -2.63347 -14.1099 
734 2 -6.03287 -3.84129 -7.03857 
735 2 7.34973 4.20925 12.4368 
736 2 -1.73699 8.75756 11.4179 
737 2 -10.318 5.24291 13.5029 
738 2 -13.1138 -2.19943 4.64191 
739 2 -0.165058 -12.5486 -13.5062 
740 2 -8.1294 9.10381 -13.872 
741 2 -12.8323 -6.05003 6.36689 
742 2 -6.08488 -8.14904 1.26682 
743 2 -9.09937 0.973151 -10.8222 
744 2 -12.2927 -12.54 -13.4992 
745 2 -12.2813 -13.5788 -0.540303 
746 2 -6.99022 5.6608 -7.11878 
747 2 -2.30217 -12.1515 -12.4469 
748 2 0.364822 -10.5336 8.61339 
749 2 1.44693 -11.425 6.50234 
750 2 -7.92535 5.42937 2.65814 
751 2 7.96567 -12.2899 7.88557 
752 2 13.4311 -1.69624 -12.4145 
753 2 -9.34668 12.4863 -6.6984 
754 2 8.98969 -1.05905 10.5509 
755 2 1.22839 11.8249 10.0667 
756 2 -7.0356 -4.7926 -0.783759 
757 2 -3.176 -7.0257 9.58048 
758 2 -3.93053 -7.21389 7.42385 
759 2 -5.67767 8.88202 5.93416 
760 2 0.189119 9.25727 10.1043 
761 2 -0.438036 13.4413 13.3961 
762 2 13.1609 -3.42036 3.5866 
763 2 -8.46142 -10.9507 -0.697871 
764 2 6.29644 0.748068 11.5773 
765 2 -12.8311 1.98002 -9.07578 
766 2 -9.19214 -10.6756 -5.138 
767 2 -12.3364 -9.28783 -13.9877 
768 2 -13.6203 -1.67581 -10.3135 
769 2 4.25891 8.21496 1.92085 
770 2 -5.50019 6.791 -13.6113 
771 2 2.39569 8.79558 -5.71601 
772 2 13.5514 -0.630575 -1.10873 
773 2 11.2252 -13.3732 -5.84223 
774 2 -13.4491 5.57994 0.432668 
775 2 -7.07402 -7.97814 -7.92914 
776 2 -13.9364 -11.475 -6.24918 
777 2 8.49955 5.87582 13.7365 
778 2 1.43668 -13.9033 6.50786 
779 2 -8.49587 -8.89208 0.782464 
780 2 4.29618 -4.09333 0.794091 
781 2 11.9675 -6.88922 4.68498 
782 2 6.29799 7.63409 -2.17333 
783 2 -1.93883 -6.62575 2.34245 
784 2 1.06791 5.39648 3.96198 
785 2 14.1211 -3.00333 -0.537939 
786 2 12.8876 -2.49004 -2.52906 
787 2 -12.4832 -13.3215 -11.2632 
788 2 3.92666 -12.5947 9.81606 
789 2 -3.52025 -10.8151 -10.7432 
790 2 -4.33136 -1.08985 8.94384 
791 2 4.62334 5.09371 -4.47136 
792 2 -0.330671 -0.0686299 -3.60598 
793 2 7.65853 13.6975 -11.5681 
794 2 8.73434 -7.19096 0.718159 
795 2 -3.88913 -13.1273 11.2162 
796 2 -11.9379 -3.29137 -4.10494 
797 2 11.8228 -14.0105 -3.13726 
798 2 9.70003 5.22465 -1.54397 
799 2 13.8882 0.565869 11.4692 
800 2 -9.06365 4.71438 -9.10871 
801 2 5.50571 2.97187 -5.25528 
802 2 13.338 -2.94283 8.02661 
803 2 2.4612 -14.1161 11.0852 
804 2 -12.4229 -0.393771 3.19407 
805 2 5.19751 -10.6205 -10.7587 
806 2 -4.43912 4.73762 6.8866 
807 2 5.74881 -0.573906 13.3639 
808 2 -0.131067 -12.2726 -0.357943 
809 2 -3.08667 13.5322 -5.00395 
810 2 11.5047 3.07304 2.45416 
811 2 -11.7388 10.2943 -10.8563 
812 2 -4.02911 8.53023 -4.6933 
813 2 7.44142 2.60443 4.37657 
814 2 4.33045 -3.01417 -1.97267 
815 2 9.49085 -5.33361 7.66396 
816 2 -13.0136 -11.5798 8.00077 
817 2 -1.95025 -13.0077 12.5343 
818 2 -0.328778 3.78064 -10.4682 
819 2 -11.8147 13.0089 1.33309 
820 2 2.10417 10.0045 11.4529 
821 2 -3.19234 1.52632 13.0137 
822 2 12.5976 4.98083 13.0159 
823 2 6.95896 14.1038 -9.03923 
824 2 7.03133 7.53354 -13.7022 
825 2 9.47314 6.11193 0.829102 
826 2 -12.803 10.5127 0.877235 
827 2 -9.37977 -0.762262 6.75039 
828 2 -0.654838 -1.53406 0.998966 
829 2 -5.97491 -8.34492 12.672 
830 2 -6.93959 7.45638 -11.7657 
831 2 -0.485305 0.0251701 -7.28878 
832 2 12.0507 -4.15333 -1.07808 
833 2 -11.9555 -2.05803 -8.4878 
834 2 -0.791286 -10.2599 6.39087 
835 2 0.797013 -6.43723 7.31583 
836 2 -1.32093 -7.49554 6.96906 
837 2 -11.3581 -12.3472 9.67214 
838 2 2.73798 -10.9314 8.38796 
839 2 -4.21946 -11.495 9.65929 
840 2 9.21188 12.3616 13.6463 
841 2 11.6885 -1.91198 -0.0246101 
842 2 9.11367 2.45464 -6.47219 
843 2 9.75897 -0.234348 -10.4608 
844 2 0.713656 -4.95635 -6.36569 
845 2 -0.893969 -8.79579 1.92939 
846 2 11.2082 -6.49267 8.92712 
847 2 -3.12863 -0.983662 13.292 
848 2 -6.98747 6.63281 -2.56869 
849 2 4.99278 11.6213 13.5255 
850 2 4.53848 1.62386 12.8036 
851 2 -5.04754 -2.19544 12.3626 
852 2 8.97107 -7.61166 13.0517 
853 2 11.4464 -12.7782 5.14193 
854 2 -13.6898 -3.96748 -12.3262 
855 2 9.29397 -11.3088 -5.74303 
856 2 -11.8522 -8.72407 3.75216 
857 2 -10.6982 4.6895 -12.3949 
858 2 10.6754 11.1636 -0.792428 
859 2 -3.79684 7.70277 -6.91007 
860 2 -5.44297 13.5273 -10.1156 
861 2 4.87896 12.2643 8.80655 
862 2 11.6025 6.7201 -1.35843 
863 2 13.8318 -10.5933 9.84136 
864 2 -10.5721 -11.2614 -12.7037 
865 2 -12.604 -3.09381 8.63019 
866 2 -14.0313 10.1267 2.68312 
867 2 -6.71843 -11.0671 9.85444 
868 2 -1.81076 5.41413 13.8985 
869 2 -13.5894 4.26989 5.02787 
870 2 0.943922 -5.81221 -12.1817 
871 2 -6.48147 14.062 -3.32625 
872 2 -0.500547 2.1536 9.35608 
873 2 4.49859 1.28267 -6.43127 
874 2 9.97476 9.82711 -2.63661 
875 2 -5.12829 -4.28275 3.56298 
876 2 -0.0466448 -7.74804 8.97375 
877 2 -4.59881 9.94836 7.92232 
878 2 7.36448 2.75155 1.86564 
879 2 -12.8461 -0.940267 12.7667 
880 2 -1.57438 -8.16703 -7.5935 
881 2 -3.96265 0.434584 -5.64523 
882 2 13.0469 5.40352 -4.73699 
883 2 2.71493 4.75085 -13.834 
884 2 -13.8507 6.54454 -6.6315 
885 2 -12.1832 13.6476 3.89225 
886 2 -13.8279 10.5985 11.2857 
887 2 -4.96396 13.2145 6.30369 
888 2 13.9291 -2.86827 -4.67558 
889 2 1.24583 -3.86742 8.17527 
890 2 3.4945 -9.79482 6.52915 
891 2 -3.36218 -8.78089 -9.17313 
892 2 -8.95023 4.15957 6.78315 
893 2 -3.44025 0.294686 -12.9741 
894 2 2.99125 -2.45339 -12.4077 
895 2 -4.91721 -9.4044 7.88401 
896 2 -2.84186 4.74476 11.813 
897 2 -0.0300448 -11.2611 2.14318 
898 2 6.60865 -13.2795 -6.91758 
899 2 10.0223 9.31614 7.21139 
900 2 -10.9419 5.24906 -7.53753 
901 2 -8.62109 -6.84677 -1.34589 
902 2 -11.1018 2.8836 -7.32026 
903 2 -12.9696 0.674846 -1.97136 
904 2 -9.01355 -0.846413 -6.0532 
905 2 1.89714 -10.7692 10.5421 
906 2 13.1985 -11.2657 -0.0508301 
907 2 -4.85709 -10.8791 -8.60573 
908 2 -4.68369 -12.0666 0.613141 
909 2 2.96072 9.79632 0.808472 
910 2 -11.2213 -4.63517 7.45325 
911 2 2.922 -11.9518 -4.35504 
912 2 -1.62221 -2.15355 -3.16287 
913 2 10.0827 0.0438701 0.140593 
914 2 6.47936 -1.08132 10.2422 
915 2 -2.44336 6.65635 -4.91563 
916 2 10.5747 -4.60235 -8.76936 
917 2 -1.79007 -11.0071 13.9084 
918 2 3.95267 3.64893 -9.96201 
919 2 10.7711 -8.79738 13.7687 
920 2 -9.30571 -3.67435 6.37234 
921 2 -3.68597 14.0215 0.975223 
922 2 8.42618 4.0526 -12.7481 