ITEM: TIMESTEP
0
ITEM: NUMBER OF ATOMS
1523
ITEM: BOX BOUNDS pp pp pp
-14.1421 14.1421
-14.1421 14.1421
-14.1421 14.1421
ITEM: ATOMS id type xs ys zs
47 1 0.161112 0.115022 0.0782348
208 1 0.125049 0.03607 0.0898869
214 1 0.107787 0.111553 0.0152631
246 2 0.0372347 0.0536236 0.0101899
285 3 0.0628266 0.110988 0.105293
1442 2 0.144914 0.0336231 0.00360324
9 3 0.223965 0.0313363 0.0840543
42 2 0.181758 0.0837595 0.160924
221 1 0.332048 0.136639 0.0936646
259 2 0.288084 0.0626315 0.156591
267 2 0.248765 0.134128 0.101644
301 2 0.208117 0.108306 0.00373158
1272 1 0.282826 0.0545022 0.0144008
1360 1 0.286751 0.148726 0.0200834
48 2 0.38006 0.108016 0.165618
53 3 0.432566 0.139527 0.0856199
261 2 0.343189 0.0522787 0.082534
263 1 0.425048 0.0401334 0.12517
982 2 0.486425 0.097612 0.16121
1273 1 0.36128 0.106192 0.0144838
1323 2 0.418651 0.0336316 0.0294331
12 1 0.501568 0.00125176 5.35633e-05
18 1 0.654409 0.0215931 0.103979
20 2 0.502574 0.0565196 0.0782154
21 3 0.563157 0.161302 0.139652
61 1 0.661877 0.158879 0.0986324
68 2 0.599004 0.0882326 0.0785735
220 1 0.586338 0.0171998 0.0316142
266 2 0.568162 0.00329423 0.121518
1274 2 0.522408 0.162934 0.0456825
1278 3 0.618219 0.155988 0.00657309
29 2 0.719049 0.079456 0.129257
31 3 0.815872 0.0671866 0.0995096
529 1 0.755714 0.15928 0.10832
1283 1 0.685292 0.0880364 0.0488231
1349 2 0.798735 0.138187 0.0328987
1516 2 0.736422 0.0110381 0.0620707
3 2 0.842074 0.157528 0.138855
5 2 0.973041 0.165151 0.111034
32 1 0.973685 0.0977842 0.0552733
35 2 0.888477 0.128247 0.0550042
1338 1 0.898448 0.0367669 0.0618943
1441 2 0.982516 0.0170973 0.0854229
1517 2 0.923759 0.0825804 0.13173
7 2 0.114084 0.194229 0.0538177
41 2 0.0256066 0.167714 0.0240478
85 2 0.0641478 0.214187 0.128499
251 2 0.165726 0.187604 0.129061
338 3 0.0595722 0.312794 0.154929
1042 1 0.148796 0.270173 0.0935274
1264 2 0.147545 0.280407 0.00588437
1310 2 0.0672839 0.28985 0.0564128
39 3 0.240944 0.303799 0.0415466
50 2 0.315965 0.298477 0.111724
295 2 0.213583 0.203323 0.0405132
297 1 0.21976 0.289975 0.136488
308 2 0.26408 0.218585 0.146966
1321 1 0.308944 0.2138 0.0735128
44 2 0.399852 0.243228 0.0912908
52 3 0.46401 0.248597 0.00553293
67 2 0.491406 0.22766 0.102386
98 2 0.434615 0.331601 0.0491399
225 1 0.361024 0.19159 0.148593
309 2 0.456651 0.315316 0.143434
1062 1 0.375716 0.196557 0.0194562
1314 1 0.349918 0.279005 0.0344108
25 2 0.557445 0.263922 0.150119
62 1 0.563685 0.239473 0.00275012
66 2 0.532838 0.307818 0.0642716
70 3 0.646949 0.315002 0.140779
1065 2 0.612569 0.238521 0.0743015
65 2 0.707897 0.238197 0.0944626
74 2 0.764798 0.253692 0.016864
78 2 0.804826 0.232268 0.100027
79 2 0.831383 0.303328 0.158753
118 2 0.714448 0.170703 0.0237583
322 1 0.743765 0.318212 0.159142
324 2 0.832149 0.320899 0.0658955
1378 2 0.735753 0.328585 0.0740629
6 2 0.923358 0.284489 0.0493304
72 2 0.855676 0.22003 0.0212996
340 1 0.968939 0.31023 0.144162
366 1 0.993458 0.250517 0.0919212
753 1 0.899228 0.225736 0.109014
1293 1 0.940118 0.195304 0.0340771
1307 1 0.996148 0.256144 0.00698003
82 2 0.139174 0.452033 0.15568
126 2 0.0185331 0.473578 0.0736977
342 2 0.0786683 0.397947 0.103593
352 2 0.133686 0.455768 0.0502705
391 2 0.0492597 0.478856 0.163152
1085 1 0.059575 0.42238 0.0194658
1388 1 0.143239 0.353927 0.0602994
43 2 0.198023 0.399609 0.00810115
76 1 0.19857 0.421225 0.0958672
97 2 0.310887 0.453465 0.113392
133 2 0.245067 0.480889 0.0421084
176 2 0.284548 0.397083 0.0404142
1364 2 0.259007 0.372381 0.132176
88 1 0.415189 0.461848 0.110573
90 2 0.365324 0.376714 0.0954267
93 1 0.464117 0.4604 0.0391502
354 1 0.471165 0.39597 0.101827
1363 1 0.369366 0.446515 0.035177
63 2 0.539512 0.415495 0.0532609
64 2 0.554792 0.374006 0.136498
95 2 0.642475 0.379822 0.0514075
101 1 0.616076 0.435099 0.118944
106 2 0.612588 0.477109 0.0477288
145 1 0.513641 0.462396 0.134356
104 2 0.756671 0.498484 0.00868522
109 1 0.696388 0.455933 0.0609574
112 2 0.776658 0.427534 0.072118
325 2 0.792734 0.400236 0.164627
373 2 0.700106 0.402223 0.126978
1376 1 0.726018 0.390409 0.0129717
75 3 0.995024 0.359391 0.0504653
86 2 0.991159 0.40104 0.144285
113 3 0.855488 0.482415 0.0252057
155 2 0.839742 0.491104 0.131264
408 1 0.85168 0.405189 0.0916016
616 1 0.903338 0.348406 0.116301
1122 1 0.899641 0.371396 0.0298539
1384 2 0.929753 0.440713 0.0801695
81 1 0.0757663 0.512269 0.0195301
84 2 0.105289 0.538547 0.0997061
123 1 0.0471624 0.653285 0.115287
131 2 0.0153129 0.571992 0.0812262
624 1 0.13217 0.612815 0.145257
1391 1 0.0929695 0.594228 0.0258973
1479 1 0.0229995 0.645039 0.0343369
130 1 0.258478 0.557021 0.0741958
134 2 0.19404 0.507089 0.113371
135 2 0.171068 0.540798 0.0229667
388 1 0.278092 0.652798 0.0715042
394 2 0.297905 0.599071 0.138
432 2 0.180172 0.617133 0.0699157
89 1 0.392904 0.522942 0.00602119
137 1 0.35339 0.523419 0.0968112
138 1 0.377333 0.635696 0.113
139 2 0.338378 0.590387 0.0495447
143 2 0.438049 0.543759 0.0822636
399 2 0.445256 0.607807 0.15167
1419 2 0.431327 0.643444 0.0476839
147 1 0.665659 0.514226 0.120163
148 1 0.634695 0.625932 0.0183867
154 2 0.600113 0.580134 0.0836
191 2 0.518045 0.628103 0.0742612
393 1 0.517479 0.5625 0.137318
398 2 0.528361 0.520247 0.0586685
404 2 0.584626 0.51392 0.150552
443 2 0.57411 0.651405 0.150389
458 1 0.638406 0.586488 0.1609
102 2 0.681154 0.542925 0.0406514
151 3 0.809922 0.579942 0.0306006
153 2 0.752613 0.514528 0.104249
197 2 0.708489 0.597134 0.112597
450 2 0.807315 0.588955 0.133976
455 2 0.719442 0.622211 0.0211501
115 1 0.956214 0.519136 0.0312762
120 3 0.957058 0.511093 0.154312
161 2 0.948851 0.610993 0.145357
163 2 0.936898 0.612158 0.0248005
205 2 0.865314 0.654178 0.0745925
372 2 0.894527 0.557009 0.0876712
122 1 0.137975 0.756972 0.0364692
132 2 0.0421505 0.73137 0.0659082
157 1 0.115696 0.796144 0.108219
168 2 0.0849799 0.823127 0.0337012
200 1 0.109246 0.675986 0.0305896
439 2 0.128171 0.695214 0.111547
457 3 0.0148317 0.823825 0.109197
1294 1 0.00359016 0.79459 0.0113192
129 1 0.199164 0.695673 0.0371339
142 2 0.322664 0.701857 0.126228
165 1 0.217645 0.790164 0.0187353
172 1 0.269837 0.741592 0.0751554
422 2 0.223994 0.674721 0.131565
1439 2 0.191928 0.760853 0.0997853
1455 1 0.308836 0.799526 0.0245948
144 3 0.406509 0.808637 0.0439122
182 2 0.333346 0.801061 0.115099
187 1 0.492231 0.711562 0.0548625
216 1 0.406206 0.810287 0.156471
440 2 0.481468 0.691183 0.143477
688 2 0.478002 0.779177 0.115316
1410 1 0.406336 0.726071 0.104042
1448 2 0.346423 0.695238 0.0354874
1451 1 0.428917 0.712674 0.000546063
96 2 0.507334 0.8017 0.0237413
146 1 0.621944 0.724775 0.132238
228 1 0.643125 0.80726 0.13281
229 1 0.563818 0.765474 0.0879657
478 2 0.560324 0.829011 0.151428
1465 2 0.588461 0.693243 0.0499322
1505 1 0.655579 0.764199 0.0572242
170 2 0.749645 0.772626 0.062123
188 1 0.709568 0.738365 0.131014
461 2 0.770724 0.675702 0.104464
486 1 0.725864 0.827028 0.134925
490 3 0.816239 0.760606 0.138739
1425 1 0.677618 0.682573 0.0736227
1486 2 0.788024 0.685358 0.012447
158 1 0.962523 0.673422 0.0860915
169 2 0.992335 0.729511 0.145701
201 1 0.982821 0.707985 0.00368279
236 1 0.838058 0.733895 0.0549286
454 2 0.851637 0.827952 0.0720537
1394 3 0.928455 0.761429 0.0664318
1435 2 0.900286 0.700541 0.146663
1484 2 0.910507 0.807323 0.157002
14 2 0.13134 0.965697 0.150984
16 2 0.162046 0.867509 0.0761641
213 2 0.0163619 0.885039 0.0206081
419 1 0.0831397 0.897366 0.0951775
466 1 0.160998 0.956651 0.0654928
467 2 0.074613 0.974651 0.0495825
711 1 0.0524056 0.996139 0.134121
1490 1 0.101136 0.904358 0.00464622
4 2 0.256418 0.963488 0.0124569
11 1 0.317739 0.896576 0.0858203
178 2 0.25232 0.833995 0.0840723
219 2 0.234916 0.925368 0.105196
423 1 0.269596 0.850258 0.16292
510 1 0.299391 0.975628 0.141331
57 1 0.442615 0.94269 0.0432546
58 2 0.37852 0.966525 0.106853
181 1 0.485305 0.874976 0.0755057
209 1 0.341933 0.977472 0.0299812
215 1 0.366868 0.895534 0.0164818
232 2 0.4711 0.861652 0.163013
268 2 0.478099 0.964263 0.124305
433 1 0.403458 0.884759 0.107873
280 1 0.5499 0.913988 0.139431
489 2 0.646571 0.897256 0.145471
1279 1 0.532491 0.946238 0.0608471
1286 3 0.585182 0.857504 0.0545959
1508 2 0.626536 0.946368 0.0652315
198 2 0.686735 0.851134 0.0600056
202 2 0.736337 0.920879 0.00636202
230 1 0.788431 0.960638 0.125402
231 2 0.775693 0.878904 0.0824587
241 1 0.827302 0.862762 0.154177
244 2 0.829244 0.979989 0.0486654
483 1 0.713245 0.991715 0.157847
1514 1 0.708923 0.93314 0.0940641
26 3 0.882076 0.988536 0.144888
160 1 0.928615 0.870732 0.100848
192 1 0.999121 0.968988 0.0013405
237 1 0.835796 0.893329 0.0080817
245 2 0.925533 0.853021 0.0179543
289 2 0.922555 0.944996 0.0412786
1295 2 0.999302 0.928023 0.0994986
1519 1 0.856322 0.911564 0.0921761
206 3 0.156822 0.032911 0.248111
207 1 0.0978595 0.0515539 0.174284
238 2 0.010891 0.0633152 0.177569
250 2 0.0202104 0.154954 0.197809
337 2 0.113933 0.137301 0.198728
506 2 0.0649755 0.0899852 0.270502
256 1 0.21422 0.158121 0.19272
264 1 0.301264 0.146068 0.183744
471 2 0.290459 0.0123098 0.246129
535 1 0.241302 0.0834681 0.229016
542 3 0.239038 0.0568689 0.324344
577 2 0.178429 0.136109 0.268635
1277 2 0.26791 0.159683 0.269011
19 1 0.406196 0.11698 0.311802
28 2 0.334901 0.0952864 0.251254
269 2 0.366959 0.0182987 0.189032
270 2 0.400468 0.0334329 0.280614
274 1 0.436475 0.103366 0.231532
284 2 0.493059 0.0825054 0.297758
477 2 0.467269 0.0172186 0.20785
278 2 0.563953 0.0564584 0.208871
305 2 0.542795 0.137698 0.237225
318 2 0.601793 0.0870634 0.298834
480 2 0.635979 0.099914 0.172243
27 1 0.776699 0.118792 0.190957
33 1 0.782994 0.0274204 0.185823
73 2 0.706383 0.0653874 0.221702
279 1 0.708158 0.0873346 0.317244
281 2 0.671214 0.0137732 0.288359
287 1 0.70072 0.152487 0.179978
314 2 0.731583 0.149886 0.261091
517 2 0.787764 0.064675 0.271102
532 2 0.831766 0.160144 0.250999
242 2 0.852421 0.0765572 0.196044
260 2 0.920341 0.146092 0.206589
286 1 0.978545 0.104551 0.254534
335 2 0.880415 0.0710863 0.291035
752 1 0.845525 0.000487373 0.242779
757 2 0.976728 0.033271 0.303444
826 1 0.912411 0.153899 0.293309
1348 2 0.933408 0.0376214 0.220255
36 2 0.0739805 0.225702 0.22224
294 2 0.15045 0.258931 0.18394
298 2 0.101508 0.175066 0.301886
336 2 0.00364708 0.193471 0.287193
343 2 0.104656 0.310702 0.247297
374 3 0.00348869 0.293248 0.24714
583 1 0.073266 0.25786 0.310039
128 3 0.29447 0.318412 0.214471
296 2 0.198214 0.308685 0.26628
299 2 0.271907 0.251455 0.304449
304 1 0.299798 0.229288 0.224268
330 1 0.178949 0.225813 0.304703
346 1 0.219381 0.235084 0.226074
17 3 0.372919 0.187637 0.250335
24 2 0.375289 0.267288 0.184878
265 2 0.455372 0.189875 0.18258
310 3 0.454487 0.271895 0.249184
513 2 0.466991 0.174318 0.276569
543 1 0.351697 0.281151 0.280198
272 3 0.635979 0.170546 0.258766
273 3 0.55511 0.190397 0.324021
282 2 0.648751 0.218413 0.167708
307 2 0.526646 0.323028 0.212111
311 1 0.552512 0.299265 0.295641
313 1 0.531231 0.220823 0.226363
570 2 0.629679 0.259745 0.323894
1334 2 0.605686 0.2674 0.232506
283 2 0.831946 0.272999 0.250893
321 3 0.766214 0.220609 0.191563
364 3 0.703629 0.276183 0.25783
369 2 0.768529 0.222992 0.306362
571 2 0.791883 0.311907 0.330127
248 1 0.906915 0.291459 0.203519
253 2 0.963137 0.228281 0.178462
329 1 0.871265 0.218669 0.19181
333 2 0.91831 0.235465 0.273186
611 1 0.900753 0.319267 0.289636
832 1 0.850366 0.206467 0.325868
45 3 0.155602 0.358453 0.169263
162 2 0.0486767 0.387362 0.226478
348 2 0.13594 0.392611 0.278873
381 2 0.044438 0.442549 0.313922
389 2 0.0972769 0.470929 0.243315
538 2 0.0596308 0.346865 0.319121
87 3 0.261123 0.484365 0.193041
303 2 0.228132 0.435736 0.299361
347 1 0.323009 0.405478 0.19315
349 2 0.271471 0.350768 0.320698
350 2 0.320238 0.464484 0.263693
351 2 0.237217 0.391158 0.220777
387 1 0.175775 0.44896 0.231141
92 1 0.370419 0.474805 0.183799
107 1 0.488839 0.408576 0.198494
355 1 0.408887 0.433132 0.249777
356 2 0.409078 0.396324 0.17243
363 2 0.458655 0.366984 0.275427
554 2 0.355326 0.374267 0.294112
598 1 0.472689 0.443315 0.306853
599 1 0.39426 0.33939 0.228631
312 1 0.538644 0.396122 0.266483
317 2 0.613406 0.361615 0.229875
359 1 0.524574 0.497462 0.245187
362 2 0.577363 0.44284 0.202879
402 1 0.639828 0.436742 0.274225
606 2 0.569607 0.466742 0.307472
612 2 0.593206 0.371202 0.328725
77 2 0.771843 0.346438 0.240855
99 1 0.697036 0.376927 0.208119
111 2 0.747313 0.439083 0.248101
319 2 0.682132 0.365438 0.293896
361 2 0.675012 0.470818 0.196688
365 1 0.758183 0.391741 0.328258
377 2 0.800413 0.467841 0.323219
119 2 0.963258 0.456923 0.249228
332 1 0.85817 0.364921 0.213065
341 1 0.979896 0.381744 0.29789
345 2 0.895762 0.458553 0.331349
370 2 0.84186 0.385348 0.296493
417 2 0.898175 0.428017 0.16787
617 2 0.943468 0.366591 0.220461
658 2 0.84595 0.464248 0.233737
124 1 0.0523003 0.614411 0.253587
136 2 0.0478759 0.579681 0.172008
380 1 0.130112 0.535015 0.187478
428 2 0.153182 0.619824 0.236868
575 1 0.0312716 0.5226 0.236314
621 1 0.0927383 0.550051 0.287317
175 2 0.210821 0.578682 0.169093
379 3 0.189535 0.532172 0.260277
385 3 0.29016 0.564835 0.243459
425 1 0.217669 0.614932 0.301897
431 2 0.249966 0.657112 0.220927
681 2 0.298179 0.648881 0.306742
94 1 0.451592 0.51458 0.180055
392 2 0.370728 0.557089 0.182254
395 2 0.345471 0.562289 0.321394
396 2 0.342509 0.650594 0.200767
397 2 0.46135 0.608252 0.32318
436 2 0.392951 0.60681 0.260439
445 2 0.481538 0.582774 0.230754
637 2 0.430388 0.512678 0.268316
141 2 0.56904 0.583299 0.21319
400 1 0.613898 0.513347 0.247364
405 2 0.560306 0.555048 0.306582
406 2 0.662805 0.588587 0.246718
648 1 0.647516 0.531303 0.320817
682 3 0.599412 0.644127 0.310985
100 1 0.815524 0.535458 0.268923
360 1 0.711828 0.518947 0.265171
409 1 0.746341 0.631311 0.181291
410 1 0.768632 0.519292 0.197071
452 2 0.828277 0.65611 0.202212
453 2 0.6701 0.665548 0.174944
695 2 0.760078 0.599761 0.257106
108 1 0.999796 0.657353 0.196597
375 1 0.907504 0.524573 0.272876
376 2 0.866111 0.604788 0.281681
384 2 0.871616 0.557551 0.197595
415 1 0.911708 0.644475 0.216073
418 2 0.965779 0.582295 0.241688
630 2 0.988299 0.520731 0.315383
654 1 0.972929 0.659706 0.285828
211 2 0.0727685 0.75768 0.169196
382 2 0.0876708 0.670268 0.19679
426 2 0.0712302 0.833007 0.264402
472 2 0.130055 0.757952 0.238949
660 3 0.0307742 0.731932 0.262647
668 1 0.11397 0.682278 0.28575
721 1 0.0997429 0.769172 0.322963
140 2 0.332561 0.813599 0.211217
183 2 0.255154 0.751757 0.179323
185 2 0.327487 0.816279 0.312445
195 2 0.185942 0.8152 0.170303
429 2 0.244226 0.828716 0.244648
430 2 0.281713 0.73921 0.272577
667 1 0.199144 0.694089 0.279807
680 2 0.192623 0.776013 0.303797
703 1 0.172957 0.702898 0.19441
179 1 0.433385 0.670127 0.219047
186 2 0.378169 0.735733 0.191832
435 1 0.452748 0.701293 0.298591
444 2 0.468989 0.754082 0.219445
481 2 0.400237 0.765673 0.289755
677 1 0.365669 0.692954 0.27429
679 2 0.491339 0.786182 0.323479
149 2 0.521015 0.668671 0.234591
217 1 0.597935 0.797306 0.219902
412 2 0.554099 0.745387 0.271913
441 1 0.547426 0.738635 0.176786
447 2 0.644215 0.76729 0.289135
476 1 0.51727 0.821478 0.23741
1424 1 0.608517 0.698253 0.225896
243 2 0.77661 0.818657 0.207502
276 2 0.738264 0.779609 0.281402
401 1 0.672687 0.751925 0.205141
413 1 0.799701 0.700834 0.2733
442 1 0.820685 0.819835 0.282137
446 2 0.753744 0.716019 0.200944
448 3 0.698048 0.680868 0.277079
203 2 0.852987 0.757783 0.232952
383 2 0.940905 0.72622 0.227087
414 1 0.88303 0.686521 0.283094
463 2 0.99603 0.808739 0.209537
666 2 0.944859 0.73584 0.321743
700 1 0.983392 0.817673 0.304679
164 3 0.0513984 0.990789 0.241317
167 2 0.104019 0.853475 0.174021
247 1 0.0492442 0.919105 0.176711
421 2 0.0738384 0.923212 0.323357
492 1 0.158152 0.842909 0.251066
664 2 0.00226363 0.898323 0.255573
756 2 0.134103 0.928438 0.244666
262 2 0.273113 0.922386 0.211992
427 2 0.217214 0.870534 0.320058
464 1 0.190605 0.902739 0.179651
468 2 0.218219 0.960981 0.287515
473 2 0.221661 0.994583 0.179771
512 2 0.300411 0.904447 0.305683
708 1 0.312972 0.983772 0.330869
226 2 0.419923 0.936335 0.19017
434 1 0.345202 0.893787 0.170576
470 1 0.356485 0.952362 0.253622
474 3 0.408956 0.859066 0.253796
484 2 0.487962 0.881268 0.313168
740 2 0.443305 0.955077 0.284838
23 2 0.637613 0.991777 0.195592
275 1 0.595587 0.885843 0.21526
485 2 0.511648 0.908606 0.2304
528 2 0.601347 0.943619 0.282307
730 2 0.52831 0.997913 0.282705
731 3 0.581253 0.847397 0.310534
1280 1 0.550966 0.974341 0.201416
233 2 0.677152 0.838129 0.21903
234 1 0.676565 0.855446 0.3094
277 2 0.74231 0.906317 0.176938
487 1 0.751673 0.872584 0.270843
491 1 0.758591 0.973874 0.242383
526 2 0.753223 0.998472 0.332233
741 2 0.685303 0.925769 0.252012
1004 2 0.826637 0.911785 0.229614
204 2 0.976717 0.969541 0.177537
288 1 0.836994 0.892818 0.314524
291 2 0.858005 0.974166 0.3298
420 2 0.917763 0.948584 0.252324
456 3 0.908377 0.841732 0.251957
493 1 0.97473 0.884363 0.173907
494 1 0.895876 0.901858 0.177158
709 1 0.991751 0.953966 0.321522
8 2 0.140275 0.0829247 0.338315
254 1 0.0970138 0.0308516 0.412703
302 2 0.132593 0.0771788 0.475951
465 1 0.0628952 0.0228482 0.33353
501 3 0.0653467 0.119105 0.385591
534 3 0.0285464 0.0802494 0.480018
814 2 0.107079 0.164839 0.477055
255 1 0.322308 0.15074 0.448306
258 2 0.260199 0.107155 0.412241
498 2 0.194364 0.0382479 0.415185
502 1 0.320718 0.0571249 0.478153
503 1 0.287975 0.0215061 0.407284
548 2 0.218663 0.164873 0.35194
592 1 0.167812 0.12385 0.415635
257 2 0.4709 0.143116 0.368975
271 3 0.485344 0.120651 0.468262
300 2 0.339169 0.0648946 0.342755
357 2 0.333748 0.153178 0.34691
509 1 0.386638 0.135299 0.497286
511 1 0.436489 0.0504653 0.358082
975 2 0.386422 0.0899491 0.422339
983 2 0.458037 0.0261642 0.441306
315 2 0.657548 0.112074 0.383306
515 1 0.597311 0.0112244 0.342321
519 2 0.559074 0.0413765 0.456374
522 1 0.664075 0.135224 0.475698
739 2 0.518935 0.0164192 0.373405
784 2 0.664144 0.0429866 0.459884
825 1 0.58284 0.124301 0.469339
991 2 0.556521 0.10284 0.385006
331 1 0.819754 0.0540801 0.357217
527 2 0.758235 0.123939 0.481549
533 2 0.746294 0.0670682 0.401036
713 2 0.782148 0.136004 0.343824
733 1 0.675526 0.0205812 0.379455
747 2 0.754923 0.0286019 0.4909
326 2 0.870486 0.130208 0.375518
500 2 0.976591 0.120564 0.336729
578 2 0.954065 0.119081 0.427016
751 1 0.994754 0.0508574 0.387275
794 2 0.943956 0.0287582 0.457293
837 2 0.905256 0.0426493 0.374825
1256 2 0.844096 0.0614128 0.453503
292 2 0.137868 0.204187 0.393628
495 1 0.0202779 0.18177 0.454674
530 1 0.140621 0.264108 0.461014
541 2 0.0413765 0.213315 0.371807
620 2 0.031872 0.278193 0.430291
800 2 0.112499 0.296931 0.382418
557 2 0.288528 0.211221 0.395044
581 3 0.219734 0.190349 0.465828
589 3 0.212833 0.273181 0.389928
593 2 0.286511 0.282195 0.46036
600 1 0.317339 0.291447 0.372849
306 2 0.407547 0.218311 0.342633
507 2 0.358836 0.23119 0.456079
550 1 0.406025 0.172522 0.417685
555 2 0.440353 0.275565 0.420546
558 2 0.494104 0.266282 0.347182
563 1 0.411702 0.306839 0.337814
601 1 0.371645 0.318741 0.436663
520 1 0.663467 0.247627 0.402183
560 1 0.571758 0.26438 0.393061
561 1 0.522052 0.287611 0.464275
562 1 0.500363 0.211883 0.413552
775 2 0.60535 0.185025 0.414533
863 2 0.618112 0.304153 0.462511
985 2 0.54988 0.207729 0.485792
323 1 0.692577 0.189035 0.339349
367 2 0.705486 0.317109 0.3655
518 2 0.825014 0.200165 0.415207
566 1 0.706842 0.305788 0.451091
568 2 0.66712 0.230378 0.489911
569 2 0.723843 0.181404 0.420714
574 1 0.756881 0.253167 0.391803
579 2 0.776252 0.258411 0.482621
580 2 0.788723 0.329722 0.422969
293 2 0.97983 0.294431 0.341676
496 1 0.951696 0.305134 0.422512
573 3 0.939212 0.208069 0.377974
613 2 0.873503 0.283238 0.370349
791 1 0.900791 0.178199 0.456607
793 1 0.872896 0.259571 0.459511
836 2 0.960794 0.239683 0.48184
344 2 0.00607458 0.373843 0.39389
536 1 0.160654 0.348585 0.437922
584 1 0.0899021 0.439151 0.468029
587 2 0.153324 0.491476 0.445222
588 3 0.14617 0.48179 0.335675
594 2 0.104418 0.407801 0.387025
762 2 0.0785513 0.351948 0.458164
833 1 0.00886517 0.45021 0.444577
390 2 0.204638 0.426341 0.403465
591 1 0.249526 0.355394 0.419862
595 2 0.18143 0.357369 0.351334
596 2 0.329906 0.377128 0.394755
627 1 0.248238 0.490723 0.437522
634 1 0.288999 0.439984 0.358458
849 1 0.310534 0.356828 0.499156
353 3 0.377444 0.468441 0.339226
597 3 0.478296 0.374105 0.440532
602 2 0.420406 0.382702 0.364924
605 2 0.429123 0.462278 0.419919
608 2 0.388398 0.396951 0.481507
628 2 0.335817 0.465501 0.433137
865 2 0.491748 0.461053 0.481831
358 3 0.581732 0.432222 0.452155
552 1 0.500073 0.352991 0.345194
559 1 0.565388 0.348948 0.410063
607 2 0.650675 0.379293 0.404524
642 2 0.520011 0.435565 0.376913
645 2 0.619316 0.484352 0.385631
371 2 0.699898 0.458049 0.340775
378 2 0.821685 0.412479 0.394191
603 1 0.676473 0.456058 0.445934
610 1 0.763374 0.47861 0.404768
649 1 0.732504 0.400917 0.40518
830 2 0.732657 0.378653 0.490267
914 2 0.743154 0.498922 0.485199
327 2 0.918461 0.368684 0.357799
582 1 0.974418 0.44869 0.364257
614 2 0.877493 0.344617 0.439708
615 3 0.846203 0.498419 0.442236
619 2 0.919488 0.430587 0.43013
799 2 0.978177 0.385488 0.491239
339 3 0.0626021 0.509989 0.385304
460 2 0.135336 0.608809 0.335388
585 1 0.0670484 0.604893 0.497941
618 2 0.0357893 0.606375 0.340065
661 1 0.0115582 0.59599 0.424238
670 1 0.0983305 0.592997 0.416016
888 2 0.144733 0.573659 0.486245
893 2 0.0576852 0.519205 0.484051
386 1 0.179546 0.555027 0.394322
626 2 0.18626 0.639403 0.41644
629 2 0.23745 0.572555 0.458773
631 2 0.248507 0.522229 0.339502
639 2 0.308848 0.542565 0.402382
669 1 0.254615 0.601892 0.372528
887 1 0.239744 0.664132 0.482407
937 3 0.321458 0.640178 0.434193
403 2 0.476718 0.51798 0.351424
632 3 0.457753 0.55449 0.451607
633 1 0.393696 0.563538 0.387899
636 2 0.481718 0.637714 0.49929
638 2 0.378591 0.651227 0.353402
897 1 0.423926 0.640834 0.424519
899 2 0.359677 0.548523 0.474916
604 1 0.542676 0.518898 0.417399
641 1 0.646921 0.615119 0.493651
644 2 0.527692 0.598913 0.386164
651 2 0.621887 0.578513 0.3955
691 2 0.594304 0.663485 0.414082
873 2 0.616917 0.524338 0.480216
905 2 0.558713 0.594165 0.472563
368 2 0.700465 0.537034 0.40911
407 3 0.790833 0.596523 0.423112
411 2 0.762878 0.546523 0.339462
643 2 0.692076 0.609001 0.342081
657 2 0.780172 0.648071 0.336161
701 1 0.698561 0.62355 0.429224
416 2 0.967989 0.666193 0.391813
625 1 0.948205 0.595142 0.333884
652 3 0.873748 0.638453 0.379315
874 3 0.947109 0.5287 0.415289
923 2 0.862203 0.543588 0.352683
954 2 0.910689 0.636453 0.4728
462 2 0.0468365 0.829087 0.360369
662 2 0.0517646 0.702419 0.359601
672 2 0.128009 0.792177 0.414999
921 2 0.100095 0.682729 0.445996
928 2 0.00877184 0.666963 0.481828
929 2 0.15042 0.709638 0.362822
932 1 0.0445804 0.752759 0.433114
933 2 0.0714095 0.816647 0.487562
424 1 0.329108 0.72991 0.34901
438 2 0.251702 0.78214 0.370519
475 1 0.266738 0.806752 0.456404
635 2 0.201866 0.735436 0.444878
663 2 0.189339 0.832709 0.489504
676 1 0.239296 0.694351 0.35761
727 1 0.287005 0.729777 0.423394
479 2 0.41704 0.733776 0.384319
505 2 0.345977 0.797306 0.407205
675 1 0.445544 0.713708 0.471151
683 1 0.499123 0.765796 0.408757
939 2 0.362921 0.728497 0.469909
974 1 0.426853 0.803145 0.443302
640 1 0.522357 0.692066 0.449103
646 2 0.575866 0.744295 0.36508
686 2 0.579558 0.752034 0.475356
692 2 0.505606 0.684734 0.365225
694 1 0.642352 0.791854 0.376846
732 1 0.572807 0.814775 0.416903
735 1 0.654427 0.818603 0.455253
949 3 0.664313 0.707941 0.46003
979 1 0.506453 0.795142 0.4887
449 1 0.80603 0.819771 0.364042
488 2 0.719149 0.815788 0.369785
647 1 0.820978 0.755901 0.422896
653 1 0.832126 0.67523 0.468423
685 1 0.759728 0.734798 0.349347
689 2 0.734029 0.777603 0.456806
697 2 0.761916 0.693481 0.423168
698 2 0.672667 0.707826 0.366969
744 3 0.818318 0.824071 0.498829
451 2 0.843323 0.737233 0.338339
469 2 0.892089 0.81475 0.347852
655 1 0.902801 0.730492 0.40253
659 2 0.974621 0.784286 0.39599
705 2 0.877973 0.7429 0.490929
710 1 0.899331 0.809918 0.440988
881 1 0.959308 0.734902 0.467402
957 2 0.977152 0.827786 0.485506
15 2 0.143493 0.98742 0.34342
716 2 0.139716 0.977946 0.467784
723 2 0.13439 0.846614 0.335674
748 2 0.0274798 0.974369 0.396654
755 2 0.0398464 0.889292 0.431034
963 1 0.0526998 0.963216 0.478798
970 2 0.133013 0.909818 0.400386
994 1 0.117817 0.890599 0.482673
544 1 0.271146 0.892136 0.47164
671 1 0.197866 0.849035 0.404732
717 3 0.229149 0.944419 0.392294
719 1 0.283697 0.859937 0.387295
720 1 0.239806 0.993277 0.477511
725 1 0.324167 0.929846 0.39546
977 2 0.321979 0.969848 0.474446
553 2 0.375632 0.997693 0.395475
718 3 0.456186 0.938423 0.388637
726 1 0.379484 0.916932 0.334852
729 2 0.382077 0.886128 0.443279
738 2 0.416488 0.841077 0.361641
942 2 0.476418 0.874336 0.470212
482 1 0.505598 0.854261 0.390493
523 1 0.555233 0.933908 0.364815
687 2 0.5216 0.959962 0.46324
696 2 0.639139 0.898929 0.496597
734 1 0.564254 0.887112 0.451569
736 2 0.637429 0.878655 0.392521
993 2 0.613904 0.970321 0.419188
459 1 0.671214 0.942162 0.341598
524 2 0.800718 0.923925 0.493798
693 1 0.758709 0.86158 0.429858
737 2 0.7561 0.905425 0.354848
750 2 0.805436 0.98372 0.412361
987 3 0.714134 0.947252 0.439458
499 2 0.931076 0.897064 0.333429
572 3 0.853059 0.894337 0.40787
746 1 0.953407 0.869654 0.412215
754 1 0.93347 0.960715 0.395526
792 1 0.875887 0.974387 0.472243
955 1 0.900389 0.8827 0.496014
1003 2 0.966381 0.933741 0.475478
742 3 0.00582179 0.0829201 0.60081
768 1 0.166582 0.13645 0.532617
798 2 0.0965754 0.0984659 0.566736
965 2 0.0735015 0.016211 0.54135
971 3 0.161477 0.103464 0.644717
1076 1 0.0383342 0.161725 0.541537
1492 3 0.108031 0.0116038 0.635097
249 1 0.331262 0.0932117 0.554438
252 2 0.23968 0.0893078 0.505243
508 3 0.177777 0.0234496 0.551397
545 2 0.249978 0.0806248 0.599013
767 1 0.276268 0.0137736 0.551683
964 1 0.324249 0.0526874 0.632548
1223 1 0.303284 0.144393 0.62378
715 2 0.40951 0.0546461 0.511602
764 1 0.372763 0.11206 0.659909
774 1 0.461173 0.143514 0.560189
779 2 0.418337 0.0722219 0.599092
782 2 0.396535 0.00387265 0.661677
808 1 0.498414 0.0968742 0.620296
1019 2 0.49111 0.0167385 0.655744
1058 2 0.451895 0.159652 0.648195
773 3 0.507212 0.0345374 0.544656
812 2 0.546901 0.12984 0.554571
980 1 0.643026 0.0181293 0.593765
989 1 0.637463 0.116571 0.590187
996 2 0.608079 0.0660889 0.529991
1027 2 0.577732 0.0666386 0.634207
521 1 0.697482 0.079252 0.541351
745 1 0.821448 0.0646287 0.626138
1002 2 0.823466 0.00182805 0.545993
1073 2 0.74773 0.11909 0.616051
1244 1 0.798451 0.0867293 0.549255
1282 1 0.746385 0.0245884 0.591821
497 2 0.911578 0.0741849 0.652281
504 1 0.986546 0.00879659 0.52871
516 2 0.846665 0.142 0.506201
758 3 0.901354 0.0607544 0.547759
838 2 0.955471 0.144957 0.518289
1037 2 0.867946 0.143698 0.599474
1253 1 0.951134 0.00430115 0.614399
540 2 0.0378764 0.215747 0.611906
576 2 0.0693723 0.240992 0.515125
797 1 0.112991 0.180243 0.584656
805 1 0.0498159 0.293393 0.583535
848 1 0.122569 0.307124 0.532762
1007 1 0.11727 0.254857 0.632694
1086 1 0.0128274 0.309343 0.510808
547 2 0.232981 0.169197 0.575991
549 1 0.258798 0.243826 0.551217
551 1 0.311406 0.184219 0.524286
761 1 0.18613 0.212685 0.638029
772 2 0.169708 0.236776 0.547772
803 3 0.21732 0.324902 0.521534
804 1 0.187436 0.299292 0.612564
858 2 0.277576 0.231329 0.640383
1100 2 0.278996 0.321127 0.593673
546 2 0.378491 0.167579 0.578887
556 2 0.351142 0.267258 0.544684
802 3 0.432974 0.250628 0.614837
810 1 0.424141 0.313939 0.502402
811 2 0.355004 0.296269 0.638609
816 3 0.443241 0.221041 0.503672
817 1 0.490294 0.3046 0.555033
514 1 0.577944 0.273988 0.540171
565 2 0.639882 0.267248 0.605988
780 3 0.572715 0.169205 0.656754
781 2 0.516548 0.214903 0.578627
783 2 0.612428 0.1936 0.558468
820 2 0.541168 0.297378 0.621237
1024 1 0.664072 0.175665 0.640999
334 2 0.773414 0.330502 0.561515
567 1 0.718025 0.256973 0.556698
788 2 0.703338 0.168708 0.550284
818 1 0.670565 0.319164 0.534568
831 1 0.734644 0.210274 0.624101
867 3 0.803568 0.211678 0.566133
869 2 0.755904 0.29371 0.645209
760 1 0.898405 0.216389 0.542381
823 3 0.887421 0.25511 0.63802
824 1 0.848471 0.291703 0.538115
876 1 0.925945 0.316306 0.506063
1010 2 0.953411 0.181056 0.601687
1082 2 0.966059 0.278926 0.57943
1124 1 0.994603 0.316072 0.65762
537 2 0.069355 0.376505 0.544087
590 1 0.152723 0.3715 0.580273
801 2 0.0267783 0.488709 0.632935
840 1 0.0290167 0.456876 0.540913
842 1 0.0795062 0.421343 0.615005
1078 2 0.0913538 0.33974 0.640674
1135 2 0.119649 0.470497 0.548131
845 1 0.259423 0.40255 0.559401
850 2 0.178519 0.411865 0.501953
851 2 0.278874 0.456547 0.629669
852 1 0.312876 0.4396 0.511109
892 2 0.19371 0.44032 0.600352
898 2 0.236347 0.495588 0.528641
1091 1 0.324432 0.379513 0.645675
1130 1 0.241392 0.377507 0.646312
809 1 0.360299 0.357186 0.565322
854 1 0.450496 0.384453 0.541783
855 2 0.427077 0.353323 0.619922
857 2 0.46142 0.465 0.577919
859 2 0.375357 0.433538 0.599485
896 1 0.405743 0.478933 0.50825
564 2 0.541033 0.357172 0.512745
609 2 0.6444 0.393185 0.511716
821 2 0.6628 0.344749 0.651258
856 2 0.599768 0.358698 0.585295
860 1 0.614976 0.437566 0.621424
862 1 0.510655 0.386279 0.602501
864 2 0.555154 0.440396 0.551223
907 2 0.512749 0.460781 0.65629
912 1 0.64515 0.471277 0.544834
835 1 0.83317 0.335823 0.637117
861 1 0.691364 0.400911 0.582139
866 3 0.774668 0.439365 0.557324
1074 2 0.752978 0.397675 0.647901
1114 1 0.706989 0.475304 0.625594
539 2 0.922104 0.476494 0.60062
796 3 0.984032 0.394 0.595129
827 2 0.833783 0.387103 0.502862
868 1 0.870665 0.453213 0.537454
872 2 0.847932 0.422368 0.636395
878 2 0.889491 0.359236 0.576586
885 2 0.947361 0.476937 0.509813
622 1 0.157456 0.658651 0.50639
844 2 0.0801359 0.562703 0.658157
846 1 0.0678686 0.535864 0.569036
880 3 0.0199795 0.620421 0.59627
891 2 0.115592 0.608019 0.57342
673 2 0.208739 0.603309 0.55482
879 2 0.181285 0.632615 0.659587
889 2 0.29522 0.606585 0.526467
894 3 0.32946 0.513789 0.565714
1136 3 0.167665 0.534972 0.618279
1139 1 0.257228 0.550786 0.60386
1181 1 0.267965 0.625613 0.632388
853 1 0.399079 0.512218 0.628659
895 3 0.354766 0.600223 0.605239
901 2 0.424677 0.548432 0.549436
904 1 0.48013 0.544725 0.617356