 updated model

    1523 atoms
    3 atom types
-14.142135 14.142135 xlo xhi
-14.142135 14.142135 ylo yhi
-14.142135 14.142135 zlo zhi

Atoms

1 1 13.41543 -6.738869 10.97360
2 2 -7.304732 -8.426707 8.807910
3 2 9.666167 -9.672654 -10.17917
4 2 -6.988107 13.20997 -13.71747
5 2 13.35979 -9.457282 -11.00641
6 2 11.94970 -6.079360 -12.67046
7 2 -10.89273 -8.596295 -12.56171
8 2 -10.16890 -11.98394 -4.455250
9 3 -7.892029 -13.25069 -11.73358
10 3 -2.609921 13.20148 12.74546
11 1 -5.270687 11.16629 -11.67411
12 1 -0.1488241 13.99066 14.10087
13 1 -7.166915 -9.351193 12.47742
14 2 -10.28782 13.22220 -10.00505
15 2 -9.927637 13.68668 -4.486671
16 2 -9.664566 10.46300 -11.72369
17 3 -3.594384 -8.834947 -7.061596
18 1 4.427807 -13.46069 -11.17377
19 1 -2.642609 -10.84363 -5.277655
20 2 -0.018113844 -12.56024 -12.12563
21 3 1.786344 -9.579830 -10.19219
22 1 3.797914 -12.18881 13.52937
23 2 3.839084 13.80718 -8.661371
24 2 -3.527363 -6.582081 -8.913004
25 2 1.624799 -6.677289 -9.896121
26 3 10.73657 13.72774 -10.02518
27 1 7.814082 -10.83240 -8.729253
28 2 -4.686094 -11.43700 -6.943634
29 2 6.191325 -11.95888 -10.44141
30 2 8.579229 -10.80072 11.13802
31 3 8.860816 -12.23306 -11.41474
32 1 13.39403 -11.33827 -12.56407
33 1 8.027646 -13.39519 -8.957616
34 1 1.505033 11.58577 11.20694
35 2 11.05423 -10.60972 -12.65367
36 2 -12.03411 -7.802799 -7.845209
37 2 12.41240 -13.40870 13.82153
38 2 12.07043 -7.524904 12.93444
39 3 -7.311901 -5.569122 -12.91786
40 1 -9.152783 -4.431911 12.69110
41 2 -13.30486 -9.369246 -13.34870
42 2 -9.152573 -11.73080 -9.723733
43 2 -8.727296 -2.934261 -13.90027
44 2 -2.748920 -7.289056 -11.49500
45 3 -9.713632 -4.016784 -9.347224
46 3 -10.88107 -1.789074 12.50937
47 1 -9.366326 -10.70134 -12.03179
48 2 -3.392403 -11.08699 -9.457739
49 2 -5.762083 -7.713891 13.74454
50 2 -5.137826 -5.803177 -10.99431
51 3 -5.037635 -4.736621 10.58197
52 3 -1.017943 -7.110744 -13.98564
53 3 -1.907335 -10.19571 -11.72044
54 1 -3.602604 -8.331657 10.19728
55 1 0.4580668 -4.471403 13.74219
56 1 -1.810405 -3.620921 13.23954
57 1 -1.757709 12.42336 -12.89107
58 2 -3.506075 13.02148 -11.14495
59 2 -4.101563 -4.151406 13.97324
60 2 2.131559 -2.043360 13.14682
61 1 4.474763 -9.711148 -11.38245
62 1 1.820305 -7.390292 -14.04023
63 2 1.138924 -2.459948 -12.70714
64 2 1.558748 -3.581857 -10.21103
65 2 5.989780 -7.454465 -11.28367
66 2 1.024127 -5.399119 -12.34089
67 2 -0.2430612 -7.702942 -11.24623
68 2 2.752637 -11.61404 -11.90183
69 2 0.9058386 -9.222772 12.81652
70 3 4.156358 -5.232537 -10.16031
71 3 6.657101 -11.93209 13.15645
72 2 10.20708 -7.964186 -13.34459
73 2 5.711085 -12.47211 -7.825651
74 2 7.756140 -7.017445 -13.72717
75 3 14.00038 -3.936000 -12.65375
76 1 -8.600757 -2.297558 -11.40814
77 2 7.685234 -4.349372 -7.406501
78 2 8.638090 -7.539334 -11.27936
79 2 9.404563 -5.687285 -9.625895
80 2 -12.12113 -7.740971 11.27340
81 1 -11.98152 0.3018944 -13.60015
82 2 -10.24106 -1.340602 -9.767284
83 2 9.138969 -3.142201 14.03934
84 2 -11.22916 1.071375 -11.26127
85 2 -12.32528 -8.161934 -10.36817
86 2 13.93552 -2.788606 -10.02597
87 3 -6.764374 -0.4632735 -8.618184
88 1 -2.398822 -1.079095 -11.01466
89 1 -3.012310 0.6241800 -13.97721
90 2 -3.727675 -3.421817 -11.52831
91 2 -8.450355 -0.4834614 12.83436
92 1 -3.665107 -0.7126258 -8.943526
93 1 -1.013404 -1.107879 -13.04872
94 1 -1.369186 0.4123954 -9.049424
95 2 4.016241 -3.514806 -12.65408
96 2 0.2246424 8.602232 -13.25704
97 2 -5.348910 -1.316209 -10.93492
98 2 -1.849376 -4.763030 -12.75225
99 1 5.573015 -3.481032 -8.255635
100 1 8.857126 0.9106156 -6.494873
101 1 3.286856 -1.844023 -10.76562
102 2 5.119914 1.220611 -12.97868
103 2 1.588009 2.385732 13.89974
104 2 7.239684 -0.021353401 -13.84120
105 2 -1.159849 1.964647 13.94340
106 2 3.184459 -0.6474549 -12.79216
107 1 -0.3403662 -2.532498 -8.615170
108 1 14.02193 4.397957 -8.550885
109 1 5.554683 -1.246415 -12.41800
110 2 10.56564 2.502417 12.85510
111 2 6.995075 -1.722987 -7.124770
112 2 7.825071 -2.049649 -12.10233
113 3 10.06277 -0.5191236 -13.42763
114 1 5.455573 -5.214794 14.13379
115 1 12.90694 0.5772693 -13.22522
116 1 10.29176 -5.553581 13.76988
117 2 -13.65981 2.038591 13.72450
118 2 6.065496 -9.313923 -13.47015
119 2 13.09372 -1.134024 -7.173809
120 3 12.85431 0.2491962 -9.711990
121 1 -10.72558 4.511497 11.21665
122 1 -10.12648 7.262289 -13.15402
123 1 -12.87207 4.317705 -10.69856
124 1 -12.69701 3.262512 -6.887199
125 2 -13.74159 -0.5478356 13.22488
126 2 -13.70157 -0.7031075 -12.03035
127 2 11.90267 0.4086441 12.78484
128 3 -5.813259 -5.136085 -8.075988
129 1 -8.484456 5.524595 -13.04978
130 1 -6.831265 1.612786 -12.04356
131 2 -13.86432 2.141208 -11.77886
132 2 -12.84766 6.469241 -12.26834
133 2 -7.189572 -0.6116291 -12.99457
134 2 -8.609910 0.2506160 -10.85883
135 2 -9.263404 1.112005 -13.49778
136 2 -12.76757 2.259767 -9.256454
137 1 -4.146768 0.6623987 -11.40390
138 1 -3.469533 3.838053 -10.94602
139 2 -4.489785 2.485350 -12.83107
140 2 -4.718624 8.805655 -8.078233
141 2 1.952742 2.356053 -8.112211
142 2 -5.065021 5.686499 -10.58214
143 2 -1.683950 1.235375 -11.73133
144 3 -2.606656 8.776922 -12.89352
145 1 0.4229245 -1.033369 -10.32008
146 1 3.539889 6.235535 -10.48378
147 1 4.788627 0.3244965 -10.75904
148 1 3.809752 3.561897 -13.62208
149 2 0.6294521 4.776694 -7.519946
150 2 6.116545 4.564392 12.51001
151 3 8.700548 2.233791 -13.26357
152 1 4.921729 -0.5914055 13.46145
153 2 7.118444 0.4218096 -11.12510
154 2 2.870072 2.346459 -11.87116
155 2 9.551857 -0.4120362 -10.41656
156 2 7.096412 1.982238 12.23474
157 1 -10.96026 8.311239 -11.18606
158 1 13.02279 4.837161 -11.83355
159 1 -13.78915 -3.069292 12.93429
160 1 12.07473 10.53897 -11.27922
161 2 12.50695 3.124683 -10.00051
162 2 -12.84175 -3.126094 -7.693607
163 2 12.35614 3.144720 -13.43671
164 3 -12.64847 13.91340 -7.304322
165 1 -7.968256 8.150743 -13.64007
166 2 -9.348925 7.134424 10.20717
167 2 -11.24919 9.940700 -9.254591
168 2 -11.73854 9.139420 -13.18892
169 2 13.85687 6.425962 -10.02166
170 2 7.125652 7.770224 -12.31078
171 3 -6.772907 3.230362 13.96381
172 1 -6.470973 6.807368 -12.08159
173 1 -5.347319 0.5759799 -14.13459
174 2 -6.513100 6.300776 13.79620
175 2 -8.173444 2.171568 -9.394155
176 2 -6.093913 -2.910939 -12.99905
177 2 -9.510470 9.824379 13.62551
178 2 -7.090061 9.400412 -11.70069
179 1 -1.891289 4.828974 -7.931768
180 1 -3.309096 9.741504 12.56050
181 1 -0.4266341 10.65797 -11.87932
182 2 -4.764267 8.650488 -10.89106
183 2 -6.925747 6.983404 -9.044731
184 2 4.522442 1.896387 12.84993
185 2 -4.792581 9.034986 -5.243290
186 2 -3.379113 6.621616 -8.770084
187 1 -0.2176432 6.058919 -12.57973
188 1 5.925206 6.678907 -10.53537
189 2 -1.663312 7.940257 12.47792
190 2 4.762305 8.591956 13.49486
191 2 0.4929694 3.637436 -12.04719
192 1 -13.99828 13.32390 14.10271
193 1 6.359085 6.798357 13.79205
194 1 11.91221 2.805837 10.78651
195 2 -8.827241 8.858354 -9.253361
196 2 9.852327 8.028496 13.72044
197 2 5.896946 2.747355 -10.95741
198 2 5.182084 9.948627 -12.34183
199 2 6.965771 7.347391 11.44628
200 1 -10.95109 4.969860 -13.27138
201 1 13.55425 5.853890 -14.01290
202 2 6.674621 11.77771 -13.90050
203 2 9.950763 7.253117 -7.592115
204 2 13.45979 13.33930 -9.136614
205 2 10.38462 4.319278 -11.96885
206 3 -9.706536 -13.21127 -7.124492
207 1 -11.41001 -12.66681 -9.093565
208 1 -10.63746 -13.12287 -11.71681
209 1 -4.502462 13.41414 -13.39377
210 2 -10.99777 11.88281 11.51199
211 2 -12.12330 7.275176 -9.498045
212 2 14.13885 7.171781 12.14592
213 2 -13.67883 10.97276 -13.57706
214 1 -10.98665 -11.05851 -13.66405
215 1 -3.867184 11.03244 -13.62967
216 1 -2.639527 8.759567 -9.717479
217 1 2.799040 8.383829 -7.981719
218 2 -7.646889 10.42644 11.45571
219 2 -7.485224 12.07582 -11.12625
220 1 2.255260 -13.69191 -13.27400
221 1 -4.608273 -10.42214 -11.41585
222 1 -5.809891 8.961741 12.42677
223 1 -0.7645630 11.38268 10.39351
224 1 2.470309 7.690642 14.12919
225 1 -3.914878 -8.722873 -9.942291
226 2 -2.366839 12.33175 -8.848458
227 3 -0.6132899 10.76089 13.16337
228 1 4.034928 8.643448 -10.31560
229 1 1.889418 7.545410 -11.72061
230 1 8.212896 13.07176 -10.71182
231 2 7.680792 10.68602 -11.68175
232 2 -0.8491402 10.26028 -9.558208
233 2 5.059082 9.575280 -7.969057
234 1 5.006253 10.05906 -5.329948
235 1 6.217278 13.24693 11.69752
236 1 9.561737 6.615561 -12.58852
237 1 9.402174 11.13159 -13.89228
238 2 -13.86209 -12.43166 -9.192869
239 2 7.877242 13.96391 13.46393
240 2 8.781913 9.345389 10.68544
241 1 9.219099 10.13619 -9.881307
242 2 9.999097 -11.95239 -8.648054
243 2 7.823703 9.012968 -8.273102
244 2 9.434753 13.67370 -12.84915
245 2 12.04272 9.929271 -13.62244
246 2 -12.99114 -12.57685 -13.72540
247 1 -12.60334 11.94891 -9.262560
248 1 11.59738 -5.821891 -8.438392
249 1 -4.841385 -11.47867 1.578793
250 2 -13.57160 -9.902624 -8.603042
251 2 -9.439121 -8.794480 -10.51022
252 2 -7.410175 -11.58332 0.038680196
253 2 13.08859 -7.629208 -9.092957
254 1 -11.41586 -13.35977 -2.508687
255 1 -5.057034 -9.877310 -1.385651
256 1 -8.014862 -9.686407 -8.688341
257 2 -0.8619647 -10.12201 -3.681607
258 2 -6.686488 -11.14521 -2.531782
259 2 -5.906542 -12.37520 -9.694360
260 2 11.85121 -10.03359 -8.382154
261 2 -4.580910 -12.77974 -11.88630
262 2 -6.369735 11.88920 -8.150594
263 1 -2.234737 -13.07878 -10.66966
264 1 -5.617124 -10.05216 -8.960071
265 2 -1.317148 -8.813006 -9.072278
266 2 1.969668 -14.06784 -10.73521
267 2 -7.094501 -10.25888 -11.15629
268 2 -0.6601106 13.09351 -10.69780
269 2 -3.653900 -13.65566 -8.711986
270 2 -2.708288 -13.17418 -6.231595
271 3 -0.3891192 -10.65732 -0.9660541
272 3 3.862740 -9.264910 -6.790056
273 3 1.549271 -8.747013 -4.950528
274 1 -1.845097 -11.28435 -7.596585
275 1 2.794247 10.98467 -8.107842
276 2 6.739137 7.908536 -6.182885
277 2 6.908217 11.47528 -9.171142
278 2 1.808859 -12.54525 -8.234381
279 1 5.757170 -11.71535 -5.229620
280 1 1.541554 11.77011 -10.18711
281 2 4.801941 -13.80720 -5.934553
282 2 4.207318 -7.964478 -9.398630
283 2 9.385791 -6.368068 -6.971677
284 2 -0.2164089 -11.78986 -5.671558
285 3 -12.22935 -11.02548 -11.12631
286 1 13.59735 -11.12030 -6.950649
287 1 5.612053 -9.865365 -9.089982
288 1 9.490132 11.11190 -5.268883
289 2 11.97093 12.49226 -13.00669
290 2 -7.898614 14.08973 4.014245
291 2 10.22606 13.41944 -4.805582
292 2 -10.28199 -8.334947 -3.173725
293 2 13.57163 -5.814358 -4.478090
294 2 -9.836301 -6.787304 -8.932849
295 2 -7.995660 -8.467063 -12.99406
296 2 -8.533048 -5.319076 -6.533754
297 1 -7.811282 -5.934979 -10.24623
298 2 -11.22060 -9.267069 -5.575054
299 2 -6.473658 -7.037279 -5.493684
300 2 -4.548999 -12.30664 -4.447549
301 2 -8.309271 -11.04778 14.06230
302 2 -10.43428 -12.03603 -0.5871652
303 2 -7.701086 -1.802285 -5.689713
304 1 -5.641253 -7.632935 -7.856936
305 2 1.237511 -10.18065 -7.472803
306 2 -2.454205 -7.962669 -4.473507
307 2 0.7708544 -4.957601 -8.133827
308 2 -6.672838 -7.959616 -9.985314
309 2 -1.187200 -5.206163 -9.992227
310 3 -1.287312 -6.451772 -7.094139
311 1 1.563047 -5.683824 -5.871620
312 1 1.104584 -3.020653 -6.612768
313 1 0.9668711 -7.805728 -7.754045
314 2 6.549827 -9.859206 -6.781409
315 2 4.542000 -11.04259 -3.268434
316 2 1.192933 -11.72492 14.05135
317 2 3.270781 -3.887198 -7.737267
318 2 2.966950 -11.66307 -5.650204
319 2 5.135131 -3.716495 -5.801050
320 3 9.906046 -12.27967 13.41187
321 3 7.550764 -7.876230 -8.714432
322 1 6.894710 -5.141748 -9.640917
323 1 5.477280 -8.815511 -4.532770
324 2 9.334782 -5.028620 -12.17931
325 2 8.259947 -2.806462 -9.429542
326 2 10.48547 -10.46858 -3.619308
327 2 11.81643 -3.626492 -4.060752
328 3 -10.08778 -8.943999 13.02149
329 1 10.46446 -7.955793 -8.607340
330 1 -9.080696 -7.755182 -5.523821
331 1 8.967196 -12.60637 -4.111829
332 1 10.05383 -3.920360 -8.084504
333 2 11.94911 -7.465765 -6.445926
334 2 7.693230 -4.963010 1.785001
335 2 10.72193 -12.05595 -5.953892
336 2 -14.00683 -8.721735 -6.095707
337 2 -10.89022 -10.13881 -8.537789
338 3 -12.42331 -5.331079 -9.714532
339 3 -12.37148 0.2825442 -3.244081
340 1 13.26359 -5.367494 -10.06461
341 1 13.47634 -3.298329 -5.772964
342 2 -11.91205 -2.897729 -11.09700
343 2 -11.14302 -5.357684 -7.103601
344 2 -13.97032 -3.568264 -3.001231
345 2 11.24519 -1.116601 -4.785591
346 1 -7.905312 -7.270773 -7.769307
347 1 -4.981347 -2.691686 -8.712703
348 2 -10.40159 -3.108010 -6.191910
349 2 -6.471602 -4.246727 -4.902719
350 2 -4.971529 -0.9745702 -6.708793
351 2 -7.433452 -3.072200 -7.883396
352 2 -10.34482 -1.240351 -12.60102
353 3 -3.466400 -0.8926226 -4.547363
354 1 -0.8155804 -2.942418 -11.26204
355 1 -2.567141 -1.885309 -7.052216
356 2 -2.525268 -2.932746 -9.268436
357 2 -4.702972 -9.768172 -4.405032
358 3 2.311740 -1.917038 -1.353262
359 1 0.6950468 -0.071783319 -7.207197
360 1 5.991397 0.5359101 -6.641961
361 2 4.950078 -0.8253997 -8.578953
362 2 2.188154 -1.616743 -8.403851
363 2 -1.138131 -3.814823 -6.351934
364 3 5.759497 -6.330487 -6.849606
365 1 7.309916 -3.057229 -4.858489
366 1 14.02788 -7.093534 -11.55613
367 2 5.730495 -5.172348 -3.789711
368 2 5.670264 1.019946 -2.558401
369 2 7.595144 -7.834962 -5.476912
370 2 9.665074 -3.216429 -5.676700
371 2 5.653974 -1.186540 -4.503552
372 2 11.11539 1.545594 -11.67843
373 2 5.659854 -2.765562 -10.55065
374 3 -14.04346 -5.847829 -7.151968
375 1 11.48045 0.6628523 -6.455802
376 2 10.25591 2.950863 -6.138468
377 2 8.512093 -0.8772416 -4.961987
378 2 9.102797 -2.516660 -2.991935
379 3 -8.781286 0.9099593 -6.780388
380 1 -10.46202 0.9903597 -8.839450
381 2 -12.88444 -1.689696 -5.197536
382 2 -11.71967 4.785015 -8.546358
383 2 12.39754 6.532985 -7.716898
384 2 10.43230 1.597841 -8.478231
385 3 -5.935173 1.833822 -7.256065
386 1 -9.055261 1.628265 -2.957490
387 1 -9.184981 -1.503389 -7.615642
388 1 -6.276505 4.321781 -12.11969
389 2 -11.32498 -0.7476543 -7.231025
390 2 -8.354111 -2.083377 -2.730419
391 2 -12.74886 -0.5980433 -9.527497
392 2 -3.656369 1.614709 -8.987227
393 1 0.4943883 1.767770 -10.25819
394 2 -5.767573 2.718155 -10.18647
395 2 -4.431949 1.742174 -5.037465
396 2 -4.494807 4.288583 -8.425665
397 2 -1.112359 3.114677 -5.007254
398 2 0.7776659 0.5509882 -12.45919
399 2 -1.548398 3.049249 -9.852257
400 1 3.265964 0.3330536 -7.150056
401 1 4.836766 7.164275 -8.311027
402 1 3.954932 -1.789215 -6.385894
403 2 -0.6585124 0.5085447 -4.202364
404 2 2.393593 0.3937215 -9.883879
405 2 1.716024 1.540288 -5.500832
406 2 4.569327 2.564303 -7.219273
407 3 8.225991 2.730070 -2.174712
408 1 9.983430 -2.656284 -11.62187
409 1 7.033926 3.742902 -9.063473
410 1 7.628254 0.5965006 -8.545055
411 2 7.390479 1.340956 -4.489138
412 2 1.530156 6.940598 -6.451286
413 1 8.436482 5.688300 -6.446896
414 1 10.83372 5.275606 -6.135031
415 1 11.64486 4.086360 -8.030671
416 2 13.23673 4.700639 -3.059993
417 2 11.22066 -2.192023 -9.376208
418 2 13.10399 2.282086 -7.375214
419 1 -11.82448 11.24922 -11.48380
420 2 11.85613 12.73901 -7.107700
421 2 -12.13520 12.05092 -5.022347
422 2 -7.806765 4.952322 -10.43885
423 1 -6.507691 9.898474 -9.523661
424 1 -4.833567 6.502850 -4.270648
425 1 -8.002465 3.313219 -5.588869
426 2 -12.12066 9.462053 -6.647648
427 2 -7.863245 10.40274 -5.047178
428 2 -9.717482 3.381183 -7.397338
429 2 -7.071303 9.235837 -7.212857
430 2 -6.122089 6.688389 -6.491189
431 2 -7.117460 4.400388 -7.882128
432 2 -9.114693 3.344518 -12.13825
433 1 -2.783152 10.69091 -11.08447
434 1 -4.381808 11.09415 -9.366388
435 1 -1.336489 5.693433 -5.696719
436 2 -3.007800 2.991218 -6.833884
437 2 -6.661565 9.482234 1.217434
438 2 -7.052440 7.949305 -3.668419
439 2 -10.57326 5.503466 -10.96658
440 2 -0.5976470 5.446595 -10.12598
441 1 1.393874 6.754742 -9.196386
442 1 9.194654 8.997258 -6.141665
443 2 2.096159 4.282372 -9.888494
444 2 -0.8771255 7.186522 -7.935297
445 2 -0.6116540 2.353964 -7.587455
446 2 7.119138 6.153023 -8.432110
447 2 4.088164 7.597367 -5.961121
448 3 5.601631 5.115707 -6.305170
449 1 8.655843 9.044499 -3.845474
450 2 8.652833 2.479587 -10.36940
451 2 9.734041 6.669603 -4.593686
452 2 9.271058 4.402445 -8.412415
453 2 4.830870 4.701946 -9.172753
454 2 9.843518 9.223283 -12.15707
455 2 6.275970 3.480538 -13.52657
456 3 11.69293 9.667011 -6.979006
457 3 -13.72263 9.159142 -11.05359
458 1 3.916349 2.463288 -9.651125
459 1 4.692373 12.47346 -4.405801
460 2 -10.36086 3.054219 -4.661440
461 2 7.625943 4.886786 -11.28369
462 2 -12.81740 9.307982 -3.949363
463 2 14.04110 8.637082 -8.229528
464 1 -8.698814 11.34496 -9.068114
465 1 -12.23545 -13.50901 -4.760584
466 1 -9.545003 12.88391 -12.42198
467 2 -11.98253 13.31186 -12.79148
468 2 -7.878913 12.87978 -5.997021
469 2 11.13687 8.910465 -4.227641
470 1 -4.016965 12.73500 -7.104454
471 2 -5.870720 -13.92595 -7.130374
472 2 -10.46363 7.295989 -7.383623
473 2 -7.902271 14.03267 -8.936345
474 3 -2.560795 10.15159 -6.981936
475 1 -6.604140 8.654011 -1.244041
476 1 0.5636852 9.112230 -7.462916
477 2 -0.8289515 -13.63142 -8.335349
478 2 1.595816 9.317356 -9.945498
479 2 -2.393378 6.615193 -3.271749
480 2 3.812606 -11.51932 -9.509994
481 2 -2.906012 7.498646 -5.859405
482 1 0.2412716 10.03397 -3.130239
483 1 6.089864 13.76212 -9.555295
484 2 -0.3871196 10.76998 -5.302577
485 2 0.3371643 11.58586 -7.585670
486 1 6.375779 9.225955 -10.24337
487 1 7.178133 10.45394 -6.344999
488 2 6.269931 8.824132 -3.706592
489 2 4.089344 11.15818 -10.13480
490 3 8.944590 7.371047 -10.21799
491 1 7.338178 13.41900 -7.290879
492 1 -9.552681 9.672070 -7.016446
493 1 13.39194 10.82330 -9.135696
494 1 11.14085 11.25015 -9.238796
495 1 -13.74109 -9.099305 -1.336458
496 1 12.77588 -5.511634 -2.191683
497 2 11.69878 -12.01493 4.329593
498 2 -8.672808 -13.04952 -2.309177
499 2 12.17476 11.26228 -4.743159
500 2 13.30523 -10.75787 -4.579129
501 3 -12.29385 -10.77335 -3.235968
502 1 -5.127977 -12.36559 -0.6556410
503 1 -5.935208 -13.45890 -2.650129
504 1 13.77873 -13.83113 0.7658861
505 2 -4.388876 8.408861 -2.647217
506 2 -12.26844 -11.63057 -6.599022
507 2 -3.966191 -7.650583 -1.172531
508 3 -9.071365 -13.48981 1.484932
509 1 -3.249483 -10.23622 -0.024249159
510 1 -5.659217 13.49140 -10.07578
511 1 -1.781331 -12.63045 -3.909248
512 2 -5.544863 11.38397 -5.573827
513 2 -0.8942030 -9.208073 -6.379890
514 1 2.204575 -6.392578 1.136221
515 1 2.840314 -13.77548 -4.449527
516 2 9.774130 -10.04095 0.1376326
517 2 8.122930 -12.40288 -6.449167
518 2 9.284032 -8.411689 -2.468880
519 2 1.613823 -12.90499 -1.214971
520 1 4.623541 -7.138186 -2.766695
521 1 5.631278 -11.81688 1.106951
522 1 4.602200 -10.19371 -0.7136773
523 1 1.592712 12.26465 -3.920995
524 2 8.423161 11.92761 -0.1370075
525 2 2.650973 13.37516 0.5739124
526 2 7.062048 14.06260 -4.654700
527 2 7.303982 -10.63661 -0.5218599
528 2 2.891857 12.49765 -6.207549
529 1 7.163758 -9.726518 -11.14699
530 1 -10.22749 -6.784133 -1.127431
531 1 -10.97835 12.49457 1.314799
532 2 9.327985 -9.688115 -6.988008
533 2 7.025285 -12.20852 -2.723819
534 3 -13.29935 -11.83733 -0.5256590
535 1 -7.242760 -11.83403 -7.708848
536 1 -9.598165 -4.282664 -1.755834
537 2 -12.10584 -3.476308 1.243545
538 2 -12.52910 -4.381316 -5.069208
539 2 11.89371 -0.6695926 2.823813
540 2 -12.96000 -8.060121 3.101783
541 2 -13.03035 -8.153885 -3.649955
542 3 -7.381131 -12.53364 -4.968295
543 1 -4.169120 -6.136515 -6.126831
544 1 -6.448264 11.14121 -0.8097733
545 2 -7.040799 -11.88306 2.808728
546 2 -3.441917 -9.384754 2.290935
547 2 -7.552446 -9.356518 2.149364
548 2 -8.019543 -9.498639 -4.162769
549 1 -6.680364 -7.161841 1.499804
550 1 -2.655980 -9.266797 -2.314052
551 1 -5.341200 -8.966512 0.6941370
552 1 0.0020773299 -4.158042 -4.378565
553 2 -3.536587 14.05069 -2.894310
554 2 -4.139770 -3.570951 -5.939343
555 2 -1.524168 -6.262579 -2.251062
556 2 -4.236544 -6.609148 1.319249
557 2 -5.930655 -8.197633 -2.902120
558 2 -0.1033681 -6.585967 -4.350399
559 1 1.858544 -4.344260 -2.539604
560 1 2.029610 -6.664328 -3.024692
561 1 0.6117519 -6.036808 -1.055781
562 1 0.034090880 -8.139131 -2.436094
563 1 -2.468833 -5.499222 -4.600997
564 2 1.153103 -4.055953 0.3461250
565 2 4.040327 -6.530533 2.958728
566 1 5.921288 -5.499385 -1.345062
567 1 6.110207 -6.931892 1.460390
568 2 4.740830 -7.677045 -0.4105505
569 2 6.273293 -9.055162 -2.265532
570 2 3.671931 -6.720725 -4.954833
571 2 8.163793 -5.368705 -4.848060
572 3 10.05397 11.16102 -2.558432
573 3 12.43238 -8.178565 -3.485330
574 1 7.211506 -6.974765 -3.112078
575 1 -13.26872 0.6608744 -7.407976
576 2 -12.26420 -7.338136 0.3008723
577 2 -9.094809 -10.36748 -6.580476
578 2 12.83990 -10.84422 -2.020950
579 2 7.892724 -6.866703 -0.5576259
580 2 8.277902 -4.872632 -2.226525
581 3 -7.927114 -8.758248 -0.9665360
582 1 13.40021 -1.456357 -3.839294
583 1 -12.06063 -6.824757 -5.397874
584 1 -11.61194 -1.761025 -0.8893510
585 1 -12.24572 2.966826 -0.058251411
586 2 13.76546 0.5782282 6.353851
587 2 -9.842204 -0.2113668 -1.545121
588 3 -10.00782 -0.5150685 -4.647818
589 3 -8.088064 -6.358552 -3.071069
590 1 -9.785127 -3.629400 2.275997
591 1 -7.084476 -4.090078 -2.266641
592 1 -9.433573 -10.62581 -2.406083
593 2 -6.038377 -6.160449 -1.121182
594 2 -11.28038 -2.684879 -3.175790
595 2 -9.123405 -4.048680 -4.193082
596 2 -4.807263 -3.484360 -2.946169
597 3 -0.6138700 -3.560862 -1.681997
598 1 -0.7604226 -1.619096 -5.445163
599 1 -2.972139 -4.516151 -7.676923
600 1 -5.178531 -5.949694 -3.651920
601 1 -3.616057 -5.202638 -1.811954
602 2 -2.286651 -3.223192 -3.780841
603 1 4.991411 -1.242858 -1.529212
604 1 1.207052 0.5345127 -2.336319
605 2 -2.004709 -1.066933 -2.265046
606 2 1.968772 -0.9406699 -5.445505
607 2 4.310407 -3.382381 -2.750609
608 2 -3.156575 -2.914679 -0.5230588
609 2 4.084258 -3.021193 0.3313708
610 1 7.416881 -0.6168792 -2.746668
611 1 11.33501 -5.111895 -5.949987
612 2 2.631519 -3.708107 -4.837656
613 2 10.51065 -6.150270 -3.718011
614 2 10.74796 -4.363015 -1.649209
615 3 9.781854 -0.063473508 -1.619175
616 1 11.40813 -4.287725 -10.85265
617 2 12.61206 -3.734551 -7.997475
618 2 -13.10848 2.990956 -4.418024
619 2 11.84864 -1.947979 -1.981696
620 2 -13.24066 -6.273661 -1.971670
621 1 -11.51452 1.362665 -5.974539
622 1 -9.704676 4.492493 0.2471474
623 1 -13.29915 6.903697 0.4438184
624 1 -10.42520 3.155994 -9.974412
625 1 12.67616 2.699173 -4.618044
626 2 -8.817026 3.994475 -2.472031
627 1 -7.110308 -0.2275397 -1.782761
628 2 -4.643788 -0.9757817 -1.891177
629 2 -7.462525 2.071133 -1.130227
630 2 13.93027 0.6194810 -5.285367
631 2 -7.154357 0.6099423 -4.604067
632 3 -1.194924 1.541217 -1.368766
633 1 -3.006730 1.797117 -3.170694
634 1 -5.967998 -1.697495 -4.003425
635 2 -8.467237 6.752569 -1.441919
636 2 -0.5170975 3.895144 -0.020083725
637 2 -1.898639 0.3467299 -6.515498
638 2 -3.433957 4.277335 -4.146410
639 2 -5.476290 1.234633 -2.769824
640 1 0.6548889 5.503844 -1.401112
641 1 4.155565 3.256058 -0.1795822
642 2 0.5659990 -1.822496 -3.481431
643 2 5.444712 2.993777 -4.522805
644 2 0.8131545 2.857964 -3.289932
645 2 3.353197 -0.4109487 -3.170891
646 2 2.175698 6.937112 -3.817775
647 1 9.036531 7.304291 -2.254171
648 1 4.172395 0.8853962 -5.068048
649 1 6.576204 -2.802482 -2.681909
650 1 6.768949 4.621593 0.017814536
651 2 3.562367 2.316038 -2.900816
652 3 10.60443 3.871816 -3.348601
653 1 9.371624 4.909066 -0.9082193
654 1 13.42161 4.455288 -6.039402
655 1 11.41685 6.482430 -2.782409
656 1 11.27686 1.399559 0.2895747
657 2 7.874179 4.198013 -4.648059
658 2 9.774854 -1.080584 -7.525551
659 2 13.37955 8.075243 -3.036938
660 3 -13.26256 6.570345 -6.769805
661 1 -13.81522 2.714996 -2.142863
662 2 -12.74825 5.790391 -4.018839
663 2 -8.894165 9.374037 -0.3582853
664 2 -14.00821 11.26162 -6.933744
665 2 13.66583 2.081794 0.066084608
666 2 12.57820 6.600338 -5.003872
667 1 -8.509488 5.489671 -6.227993
668 1 -10.92436 5.113358 -6.114683
669 1 -6.923426 2.923878 -3.609880
670 1 -11.36093 2.630347 -2.375435
671 1 -8.480629 9.863571 -2.648431
672 2 -10.52186 8.196811 -2.412515
673 2 -8.231511 3.028348 1.635192
674 2 12.76909 5.712823 1.433077
675 1 -1.544493 5.982414 -0.7730491
676 1 -7.373810 5.497083 -4.027387
677 1 -3.688591 5.383483 -6.368000
678 2 -4.346916 9.139618 -0.072579876
679 2 -0.3382439 7.999391 -4.986731
680 2 -8.824049 7.712943 -5.511846
681 2 -5.715624 4.219807 -5.526192
682 3 2.811793 4.076525 -5.346142
683 1 -0.024804046 7.517841 -2.580736
684 1 2.472487 9.398243 0.3455176
685 1 7.335048 6.711378 -4.200529
686 2 2.250239 7.128602 -0.6970482
687 2 0.5340672 12.99641 -0.9346414
688 2 -0.5758948 7.892479 -10.69045
689 2 6.595650 7.912269 -1.254411
690 2 7.635135 9.642349 2.554383
691 2 2.684063 4.668431 -2.407565
692 2 0.1585589 5.225070 -3.812001
693 1 7.317408 10.22704 -1.983926
694 1 4.074190 8.293859 -3.435567
695 2 7.302649 2.759978 -6.898310
696 2 3.913522 11.21223 0.1316983
697 2 7.280105 5.439411 -2.191574
698 2 4.835887 6.029430 -3.852265
699 1 10.32807 5.219547 1.537834
700 1 13.77012 8.872871 -5.614917
701 1 5.616157 3.494529 -2.001842
702 1 9.281367 3.120483 0.6266432
703 1 -9.304334 5.595291 -8.641118
704 2 -10.89838 10.02277 1.734234
705 2 10.71057 6.853666 -0.2629566
706 2 6.400744 2.346459 0.5696217
707 3 -13.55236 12.79783 2.579912
708 1 -5.251269 13.63625 -4.870192
709 1 13.90436 12.80778 -5.028417
710 1 11.32930 8.763843 -1.691021
711 1 -12.72255 14.13033 -10.51163
712 1 -13.12908 10.92447 0.6028571
713 2 7.867527 -10.28619 -4.314099
714 2 12.15365 11.80690 3.839717
715 2 -2.659328 -12.58209 0.2631536
716 2 -10.13684 13.48412 -0.9769729
717 3 -7.680628 12.65478 -3.035676
718 3 -1.239259 12.40048 -3.149833
719 1 -6.066931 10.11080 -3.172746
720 1 -7.352443 13.99920 -0.6070031
721 1 -11.33670 7.536529 -4.966303
722 2 -8.660254 11.91085 0.5095583
723 2 -10.35074 9.825114 -4.722334
724 2 -13.41092 8.210898 4.773271
725 1 -4.937083 12.12078 -3.053972
726 1 -3.311869 11.85556 -4.709313
727 1 -5.994327 6.488114 -2.168232
728 2 -6.440940 6.787482 0.4361980
729 2 -3.302417 11.02737 -1.599389
730 2 0.8898903 14.12669 -6.085051
731 3 2.298183 9.825860 -5.358920
732 1 1.982644 8.825498 -2.241067
733 1 4.998011 -13.61783 -3.398842
734 1 1.797870 11.02234 -1.352147
735 1 4.367868 9.011441 -1.265628
736 2 3.817608 10.76171 -2.905244
737 2 7.238838 11.46842 -4.078180
738 2 -2.362069 9.647109 -3.913388
739 2 0.5294443 -13.57891 -3.591831
740 2 -1.585216 12.83628 -6.214908
741 2 5.324375 12.00074 -6.987407
742 3 -13.97747 -11.79680 2.851335
743 3 5.262737 9.117682 4.771143
744 3 9.010765 9.091385 -0.045141533
745 1 9.151568 -12.32345 3.591552
746 1 12.82430 10.45540 -2.482941
747 2 7.245982 -13.37194 -0.1277053
748 2 -13.28449 13.46292 -2.940969
749 2 13.26377 -12.24250 6.337276
750 2 8.512369 13.68744 -2.382251
751 1 13.97763 -12.69759 -3.145951
752 1 9.729006 14.07666 -7.240496
753 1 11.25558 -7.476406 -10.86909
754 1 12.23523 13.01639 -2.954005
755 2 -13.01511 11.01083 -1.950660
756 2 -10.29045 12.08573 -7.302722
757 2 13.50066 -13.25293 -5.558162
758 3 11.31939 -12.40771 1.303145
759 1 -9.548814 12.25550 3.225127
760 1 11.26872 -7.947282 1.152395
761 1 -8.928700 -8.194961 3.920668
762 2 -11.94359 -4.194855 -1.197645
763 2 -12.23270 -12.06102 5.711267
764 1 -3.414206 -10.96573 4.609548
765 1 -7.044562 12.04360 2.301372
766 1 -7.315337 -12.19377 5.444951
767 1 -6.328108 -13.75256 1.461820
768 1 -9.430490 -10.28274 0.9225595
769 1 -3.857708 -9.441233 12.58347
770 2 -8.491749 10.16181 2.965906
771 2 -13.81154 -13.54202 8.340724
772 2 -9.376000 -7.469637 1.310730
773 3 0.1074966 -13.13424 1.239334
774 1 -1.100626 -10.09543 1.724225
775 2 2.998655 -8.952968 -2.448425
776 2 -1.008201 -9.182788 6.657980
777 2 -2.247724 13.08058 0.0044758739
778 2 -4.722564 11.38445 1.352288
779 2 -2.332092 -12.05060 2.793507
780 3 2.067677 -9.330971 4.442545
781 2 0.4763034 -8.067870 2.366439
782 2 -2.969139 -13.96230 4.552595
783 2 3.250670 -8.609606 1.656467
784 2 4.651607 -12.79665 -1.125925
785 1 5.480511 -11.30261 7.158431
786 1 3.400379 -13.68484 5.651450
787 1 8.509097 -7.828944 4.785840
788 2 5.862089 -9.320507 1.363873
789 2 1.683038 13.37893 3.105759
790 2 5.931269 11.44519 3.525227
791 1 11.40634 -9.039878 -1.118587
792 1 10.47409 13.41087 -0.7817907
793 1 10.62496 -6.778987 -1.206474
794 2 12.46518 -13.31747 -1.172163
795 2 -13.73076 13.97423 5.181147
796 3 13.69049 -2.998121 2.690662
797 1 -10.78279 -9.117394 2.461192
798 2 -11.31429 -11.37411 1.950088
799 2 13.56639 -3.240076 -0.1993422
800 2 -10.96017 -5.743666 -3.325714
801 2 -13.34881 -0.3843634 3.784861
802 3 -1.895781 -7.053309 3.248089
803 3 -7.983539 -4.979306 0.6066474
804 1 -8.888079 -5.701930 3.103447
805 1 -12.60201 -5.868843 2.281739
806 2 -3.039838 -10.93849 6.970255
807 2 -7.499737 -9.735111 5.148798
808 1 -0.044847347 -11.40212 3.402485
809 1 -3.827850 -4.092179 1.847889
810 1 -2.054374 -5.348850 0.1194173
811 2 -4.108509 -5.710265 3.879852
812 2 1.329519 -10.53788 1.624928
813 2 -0.6990218 -4.844290 5.394870
814 2 -11.10649 -9.473678 -0.7284116
815 2 -3.869763 -8.488801 4.936540
816 3 -1.605396 -7.890149 0.1038534
817 1 -0.2745351 -5.526758 1.556582
818 1 4.778909 -5.098766 0.9538407
819 1 8.691393 -5.779864 6.079076
820 2 1.118822 -5.800612 3.429064
821 2 4.565433 -4.351878 4.317287
822 3 2.683423 -6.186748 5.693341
823 3 10.95792 -6.926533 3.903798
824 1 9.866995 -5.812075 0.9731568
825 1 2.279476 -10.60412 -0.9147743
826 1 11.61496 -9.724133 -5.886055
827 2 9.342156 -3.223701 0.055604730
828 2 6.197810 -4.799004 6.406816
829 2 5.195407 -7.217491 5.270865
830 2 6.653676 -3.433081 -0.2271213
831 1 6.637884 -8.153399 3.507445
832 1 9.909851 -8.302361 -4.925203
833 1 -13.96090 -1.423732 -1.574187
834 1 4.640385 13.27132 9.722755
835 1 9.423474 -4.643624 3.878268
836 2 13.06839 -7.357394 -0.4249278
837 2 11.43909 -12.88661 -3.529324
838 2 12.84912 -9.997084 0.6025531
839 2 11.98959 -7.576045 9.156250
840 1 -13.30845 -1.222552 1.091041
841 1 12.85808 -1.384085 5.048807
842 1 -11.89336 -2.224765 3.252839
843 1 -9.750970 -5.581916 5.533484
844 2 -11.82972 1.797784 4.565267
845 1 -6.804537 -2.756302 1.680122
846 1 -12.22252 1.014377 1.952633
847 1 -9.505804 -3.276000 4.709642
848 1 -10.64197 -5.407045 0.8822408
849 1 -5.332647 -4.073209 -0.027058758
850 2 -9.187019 -2.360759 0.018760562
851 2 -6.254386 -1.229026 3.667592
852 1 -5.292654 -1.708380 0.3141987
853 1 -2.854468 0.3455853 3.639026
854 1 -1.400171 -3.268161 1.181796