ITEM: TIMESTEP
0
ITEM: NUMBER OF ATOMS
1523
ITEM: BOX BOUNDS pp pp pp
-14.1421 14.1421
-14.1421 14.1421
-14.1421 14.1421
ITEM: ATOMS id type xs ys zs
47 1 0.161031 0.115017 0.078325
208 1 0.124968 0.0360658 0.0899774
214 1 0.107705 0.111548 0.0153532
246 2 0.0371533 0.053619 0.0102801
285 3 0.0627453 0.110983 0.105383
1442 2 0.144833 0.0336189 0.0036934
9 3 0.223884 0.0313321 0.0841445
42 2 0.181677 0.0837552 0.161014
221 1 0.331966 0.136634 0.0937548
259 2 0.288003 0.0626269 0.156681
267 2 0.248684 0.134124 0.101734
301 2 0.208036 0.108301 0.00382209
1272 1 0.282745 0.0544976 0.0144909
1360 1 0.28667 0.148722 0.0201736
48 2 0.379979 0.108011 0.165709
53 3 0.432484 0.139523 0.08571
261 2 0.343107 0.0522741 0.0826242
263 1 0.424967 0.0401288 0.12526
982 2 0.486344 0.0976074 0.161301
1273 1 0.361199 0.106187 0.0145744
1323 2 0.41857 0.033627 0.0295233
12 1 0.501487 0.00124716 0.000143719
18 1 0.65563 0.021633 0.103316
20 2 0.502493 0.0565153 0.0783059
21 3 0.563075 0.161297 0.139742
61 1 0.661796 0.158874 0.0987225
68 2 0.598923 0.0882284 0.078664
220 1 0.586257 0.0171952 0.0317047
266 2 0.56808 0.00328999 0.121608
1274 2 0.522326 0.162929 0.0457726
1278 3 0.618138 0.155983 0.0066636
29 2 0.718968 0.0794514 0.129348
31 3 0.815791 0.0671824 0.0995997
529 1 0.755633 0.159275 0.10841
1283 1 0.685211 0.0880318 0.0489132
1349 2 0.798653 0.138183 0.0329888
1516 2 0.736341 0.0110335 0.0621609
3 2 0.841992 0.157524 0.138946
5 2 0.97296 0.165146 0.111124
32 1 0.973604 0.09778 0.0553638
35 2 0.888395 0.128243 0.0550944
1338 1 0.898367 0.0367627 0.0619845
1441 2 0.982434 0.0170927 0.0855131
1517 2 0.923678 0.0825761 0.131821
7 2 0.114002 0.194225 0.0539082
41 2 0.0255253 0.16771 0.0241383
85 2 0.0640665 0.214183 0.128589
251 2 0.165645 0.187599 0.129151
338 3 0.0594908 0.31279 0.155019
1042 1 0.148715 0.270168 0.0936176
1264 2 0.147464 0.280403 0.00597452
1310 2 0.0672025 0.289846 0.056503
39 3 0.240862 0.303794 0.0416367
50 2 0.315883 0.298472 0.111814
295 2 0.213502 0.203318 0.0406033
297 1 0.219679 0.289971 0.136578
308 2 0.263998 0.218581 0.147056
1321 1 0.308863 0.213796 0.0736033
44 2 0.399771 0.243223 0.091381
52 3 0.463929 0.248593 0.00562344
67 2 0.491325 0.227655 0.102476
98 2 0.434533 0.331597 0.0492304
225 1 0.360942 0.191586 0.148683
309 2 0.45657 0.315312 0.143524
1062 1 0.375634 0.196553 0.0195464
1314 1 0.349837 0.279 0.034501
25 2 0.557364 0.263918 0.15021
62 1 0.563603 0.239468 0.00284027
66 2 0.532756 0.307813 0.0643621
70 3 0.646868 0.314997 0.140869
1065 2 0.612488 0.238517 0.0743917
65 2 0.707815 0.238193 0.0945527
74 2 0.764717 0.253688 0.0169545
78 2 0.804745 0.232263 0.100117
79 2 0.831301 0.303324 0.158843
118 2 0.714366 0.170699 0.0238484
322 1 0.743684 0.318207 0.159232
324 2 0.832067 0.320894 0.065986
1378 2 0.735672 0.32858 0.0741531
6 2 0.923277 0.284485 0.0494209
72 2 0.855595 0.220025 0.0213898
340 1 0.968857 0.310226 0.144253
366 1 0.993377 0.250512 0.0920117
753 1 0.899147 0.225732 0.109105
1293 1 0.940036 0.1953 0.0341672
1307 1 0.996067 0.25614 0.00707054
82 2 0.139093 0.452029 0.155771
126 2 0.0184518 0.473573 0.0737882
342 2 0.078587 0.397943 0.103684
352 2 0.133605 0.455764 0.0503607
391 2 0.0491784 0.478852 0.163242
1085 1 0.0594937 0.422376 0.0195559
1388 1 0.143158 0.353923 0.0603896
43 2 0.197942 0.399604 0.0081913
76 1 0.198489 0.421221 0.0959574
97 2 0.310806 0.453461 0.113482
133 2 0.244985 0.480885 0.0421985
176 2 0.284466 0.397078 0.0405043
1364 2 0.258925 0.372377 0.132267
88 1 0.415108 0.461844 0.110663
90 2 0.365243 0.37671 0.0955169
93 1 0.464036 0.460396 0.0392407
354 1 0.471084 0.395965 0.101917
1363 1 0.369285 0.44651 0.0352675
63 2 0.53943 0.41549 0.0533514
64 2 0.554711 0.374001 0.136588
95 2 0.642393 0.379818 0.0514977
101 1 0.615994 0.435095 0.119035
106 2 0.612506 0.477105 0.047819
145 1 0.51356 0.462392 0.134447
104 2 0.756589 0.49848 0.00877573
109 1 0.696306 0.455928 0.0610475
112 2 0.776577 0.42753 0.0722082
325 2 0.792653 0.400231 0.164718
373 2 0.700632 0.402045 0.127727
1376 1 0.725937 0.390405 0.0130619
75 3 0.994943 0.359387 0.0505558
86 2 0.991078 0.401036 0.144376
113 3 0.855407 0.48241 0.0252962
155 2 0.839661 0.491099 0.131354
408 1 0.851599 0.405185 0.0916918
616 1 0.903257 0.348402 0.116391
1122 1 0.89956 0.371391 0.029944
1384 2 0.929672 0.440709 0.0802596
81 1 0.075685 0.512265 0.0196206
84 2 0.105207 0.538543 0.0997966
123 1 0.0470811 0.65328 0.115377
131 2 0.0152316 0.571988 0.0813164
624 1 0.132089 0.612811 0.145347
1391 1 0.0928882 0.594224 0.0259878
1479 1 0.0229182 0.645035 0.0344271
130 1 0.258397 0.557016 0.074286
134 2 0.193959 0.507085 0.113461
135 2 0.170987 0.540794 0.0230568
388 1 0.278011 0.652794 0.0715944
394 2 0.297823 0.599066 0.13809
432 2 0.180091 0.617128 0.0700059
89 1 0.392823 0.522938 0.00611135
137 1 0.353308 0.523415 0.0969014
138 1 0.377252 0.635691 0.11309
139 2 0.338297 0.590382 0.0496348
143 2 0.437968 0.543755 0.0823541
399 2 0.445175 0.607803 0.15176
1419 2 0.431246 0.64344 0.0477741
147 1 0.665578 0.514222 0.120254
148 1 0.634614 0.625928 0.0184772
154 2 0.600032 0.58013 0.0836905
191 2 0.517963 0.628099 0.0743514
393 1 0.517398 0.562496 0.137408
398 2 0.528279 0.520243 0.0587586
404 2 0.584545 0.513916 0.150642
443 2 0.574029 0.6514 0.150479
458 1 0.638325 0.586484 0.16099
102 2 0.681073 0.54292 0.0407415
151 3 0.80984 0.579938 0.0306907
153 2 0.752531 0.514524 0.10434
197 2 0.708407 0.597129 0.112688
450 2 0.807233 0.588951 0.134066
455 2 0.719361 0.622206 0.0212406
115 1 0.956133 0.519131 0.0313664
120 3 0.95471 0.511537 0.154899
161 2 0.948769 0.610989 0.145447
163 2 0.936816 0.612154 0.0248907
205 2 0.865233 0.654173 0.0746827
372 2 0.894446 0.557005 0.0877613
122 1 0.137894 0.756967 0.0365594
132 2 0.0420691 0.731365 0.0659983
157 1 0.115614 0.796139 0.108309
168 2 0.0848986 0.823123 0.0337914
200 1 0.109164 0.675981 0.0306801
439 2 0.128089 0.69521 0.111637
457 3 0.0147504 0.82382 0.109287
1294 1 0.00350884 0.794586 0.0114093
129 1 0.199083 0.695668 0.037224
142 2 0.322583 0.701852 0.126318
165 1 0.217563 0.79016 0.0188258
172 1 0.269756 0.741587 0.0752455
182 2 0.333265 0.801056 0.115189
422 2 0.223913 0.674716 0.131656
1439 2 0.191847 0.760849 0.0998755
1455 1 0.308755 0.799521 0.0246849
144 3 0.406427 0.808632 0.0440024
187 1 0.49215 0.711558 0.0549526
216 1 0.406125 0.810283 0.156562
440 2 0.481387 0.691179 0.143567
688 2 0.47792 0.779172 0.115406
1410 1 0.406255 0.726066 0.104132
1448 2 0.346341 0.695233 0.0355775
1451 1 0.428836 0.71267 0.000636219
96 2 0.507253 0.801695 0.0238318
146 1 0.621863 0.72477 0.132329
228 1 0.643044 0.807255 0.1329
229 1 0.563737 0.76547 0.0880558
478 2 0.560243 0.829007 0.151518
1465 2 0.58838 0.693238 0.0500223
1505 1 0.655498 0.764194 0.0573144
170 2 0.749564 0.772622 0.0622136
188 1 0.709487 0.738361 0.131104
461 2 0.770642 0.675697 0.104554
486 1 0.725782 0.827024 0.135016
490 3 0.816158 0.760601 0.13883
1425 1 0.677537 0.682569 0.0737132
1486 2 0.787942 0.685354 0.0125372
158 1 0.962441 0.673417 0.0861816
169 2 0.992254 0.729507 0.145791
201 1 0.97897 0.707694 0.0047438
236 1 0.837977 0.733891 0.0550187
454 2 0.851556 0.827947 0.0721442
1394 3 0.928374 0.761425 0.0665223
1435 2 0.900205 0.700536 0.146753
1484 2 0.910426 0.807319 0.157092
14 2 0.131258 0.965692 0.151074
16 2 0.161965 0.867505 0.0762542
213 2 0.0162806 0.885035 0.0206986
419 1 0.0834812 0.899145 0.0971499
466 1 0.160917 0.956647 0.0655833
467 2 0.0745317 0.974647 0.049673
711 1 0.0523243 0.996134 0.134211
1490 1 0.102153 0.904918 0.00176087
4 2 0.256336 0.963483 0.0125474
11 1 0.317657 0.896571 0.0859105
178 2 0.252238 0.833991 0.0841629
219 2 0.234835 0.925364 0.105286
423 1 0.269515 0.850253 0.16301
510 1 0.299309 0.975624 0.141421
57 1 0.438371 0.942629 0.0427607
58 2 0.378438 0.966521 0.106943
181 1 0.485223 0.874971 0.0755963
209 1 0.341851 0.977468 0.0300717
215 1 0.366786 0.89553 0.0165723
232 2 0.471019 0.861647 0.163103
268 2 0.478017 0.964259 0.124395
433 1 0.403377 0.884755 0.107963
280 1 0.550719 0.91376 0.138275
489 2 0.64649 0.897252 0.145562
1279 1 0.53241 0.946234 0.0609376
1286 3 0.585101 0.8575 0.054686
1508 2 0.626455 0.946364 0.065322
198 2 0.686653 0.85113 0.0600961
202 2 0.735239 0.919541 0.00721903
230 1 0.788349 0.960634 0.125493
231 2 0.775612 0.8789 0.0825492
241 1 0.827221 0.862758 0.154267
244 2 0.829163 0.979984 0.0487559
483 1 0.713163 0.99171 0.157938
1514 1 0.708842 0.933136 0.0941546
26 3 0.881995 0.988531 0.144978
160 1 0.928534 0.870728 0.100939
192 1 0.999039 0.968984 0.00143065
237 1 0.835715 0.893325 0.00817186
245 2 0.925452 0.853017 0.0180448
289 2 0.922473 0.944992 0.0413691
1295 2 0.999221 0.928019 0.0995887
1519 1 0.856241 0.911559 0.0922667
206 3 0.156741 0.0329065 0.248201
207 1 0.0977782 0.0515493 0.174374
238 2 0.0108097 0.063311 0.17766
250 2 0.020129 0.15495 0.197899
337 2 0.113851 0.137297 0.198818
506 2 0.0648942 0.0899809 0.270592
256 1 0.215332 0.158428 0.193437
264 1 0.301183 0.146064 0.183834
471 2 0.290377 0.0123056 0.246219
535 1 0.241221 0.0834639 0.229107
542 3 0.238956 0.0568646 0.324435
577 2 0.178348 0.136105 0.268725
1277 2 0.267829 0.159678 0.269101
19 1 0.406115 0.116975 0.311892
28 2 0.334819 0.0952821 0.251345
269 2 0.366878 0.0182944 0.189122
270 2 0.400387 0.0334283 0.280704
274 1 0.436394 0.103362 0.231622
284 2 0.492978 0.0825012 0.297849
477 2 0.467188 0.0172143 0.20794
278 2 0.563872 0.0564542 0.208961
305 2 0.542713 0.137694 0.237315
318 2 0.601711 0.0870588 0.298924
480 2 0.635897 0.0999094 0.172334
27 1 0.776617 0.118787 0.191047
33 1 0.782912 0.0274158 0.185913
73 2 0.706302 0.0653832 0.221792
279 1 0.708077 0.0873303 0.317335
281 2 0.671132 0.0137686 0.288449
287 1 0.700639 0.152483 0.180068
314 2 0.731501 0.149882 0.261181
517 2 0.787683 0.0646708 0.271192
532 2 0.831685 0.16014 0.251089
242 2 0.852304 0.0768241 0.196009
260 2 0.92026 0.146088 0.20668
286 1 0.978463 0.104546 0.254624
335 2 0.880333 0.0710821 0.291125
752 1 0.845444 0.000482777 0.242869
757 2 0.976646 0.0332667 0.303534
826 1 0.91233 0.153895 0.293399
1348 2 0.933326 0.0376168 0.220345
36 2 0.0738992 0.225697 0.22233
294 2 0.150368 0.258926 0.18403
298 2 0.101427 0.175061 0.301977
336 2 0.00356576 0.193466 0.287283
343 2 0.104575 0.310698 0.247387
374 3 0.00340737 0.293244 0.24723
583 1 0.0754913 0.259257 0.311244
128 3 0.294389 0.318408 0.214561
296 2 0.198133 0.308681 0.26637
299 2 0.271826 0.251451 0.304539
304 1 0.299717 0.229283 0.224359
330 1 0.178868 0.225808 0.304794
346 1 0.2193 0.23508 0.226164
17 3 0.372838 0.187633 0.250425
24 2 0.375208 0.267284 0.184968
265 2 0.455291 0.18987 0.18267
310 3 0.454405 0.271891 0.249275
513 2 0.46691 0.174314 0.276659
543 1 0.351615 0.281147 0.280288
272 3 0.635897 0.170541 0.258857
273 3 0.555029 0.190392 0.324111
282 2 0.64867 0.218409 0.167799
307 2 0.526565 0.323024 0.212201
311 1 0.552431 0.299261 0.295731
313 1 0.53115 0.220819 0.226453
570 2 0.629598 0.259741 0.323984
1334 2 0.605605 0.267396 0.232596
283 2 0.831865 0.272995 0.250983
321 3 0.766132 0.220605 0.191653
364 3 0.703548 0.276179 0.25792
369 2 0.768448 0.222988 0.306452
571 2 0.791802 0.311903 0.330217
248 1 0.906833 0.291454 0.203609
253 2 0.963056 0.228276 0.178553
329 1 0.871184 0.218665 0.1919
333 2 0.918229 0.23546 0.273277
611 1 0.900672 0.319263 0.289727
832 1 0.850285 0.206463 0.325958
45 3 0.15552 0.358449 0.169353
162 2 0.0485954 0.387358 0.226568
348 2 0.135859 0.392607 0.278964
381 2 0.0443566 0.442544 0.314012
389 2 0.0971955 0.470925 0.243406
538 2 0.0595495 0.346861 0.319211
87 3 0.261042 0.484361 0.193132
303 2 0.228051 0.435732 0.299451
347 1 0.322928 0.405474 0.19324
349 2 0.27139 0.350763 0.320789
350 2 0.320156 0.464479 0.263783
351 2 0.237136 0.391154 0.220867
387 1 0.175693 0.448955 0.231231
92 1 0.370338 0.4748 0.183889
107 1 0.488758 0.408571 0.198584
355 1 0.408806 0.433128 0.249867
356 2 0.408997 0.39632 0.17252
363 2 0.458574 0.36698 0.275517
554 2 0.355245 0.374262 0.294202
598 1 0.472607 0.44331 0.306944
599 1 0.394179 0.339386 0.228721
312 1 0.538563 0.396117 0.266573
317 2 0.613324 0.361611 0.229965
359 1 0.524492 0.497458 0.245277
362 2 0.577282 0.442835 0.202969
402 1 0.639747 0.436737 0.274315
606 2 0.569525 0.466738 0.307563
612 2 0.593124 0.371198 0.328815
77 2 0.771762 0.346434 0.240946
99 1 0.696955 0.376923 0.20821
111 2 0.747232 0.439079 0.248192
319 2 0.681851 0.37059 0.294059
361 2 0.67493 0.470813 0.196779
365 1 0.758102 0.391736 0.328348
377 2 0.800331 0.467837 0.323309
119 2 0.963177 0.456919 0.249319
332 1 0.858089 0.364917 0.213155
341 1 0.979815 0.38174 0.29798
345 2 0.89568 0.458548 0.33144
370 2 0.841779 0.385344 0.296583
417 2 0.898094 0.428013 0.16796
617 2 0.943387 0.366586 0.220551
658 2 0.845869 0.464244 0.233827
108 1 0.00360006 0.654549 0.198817
124 1 0.052219 0.614406 0.253678
136 2 0.0477946 0.579677 0.172098
380 1 0.13003 0.53501 0.187569
428 2 0.1531 0.61982 0.236958
575 1 0.0311903 0.522596 0.236405
621 1 0.092657 0.550047 0.287407
175 2 0.21074 0.578677 0.169183
379 3 0.189453 0.532168 0.260367
385 3 0.290079 0.564831 0.24355
425 1 0.217587 0.614927 0.301988
431 2 0.249884 0.657108 0.221017
681 2 0.298098 0.648877 0.306832
94 1 0.451511 0.514576 0.180145
392 2 0.370971 0.557497 0.17997
395 2 0.34539 0.562284 0.321485
396 2 0.342428 0.65059 0.200858
397 2 0.461268 0.608247 0.323271
436 2 0.393618 0.608519 0.26137
445 2 0.481457 0.58277 0.230844
637 2 0.430307 0.512673 0.268406
141 2 0.568959 0.583295 0.21328
400 1 0.613817 0.513343 0.247454
405 2 0.560225 0.555043 0.306672
406 2 0.662723 0.588583 0.246808
648 1 0.647435 0.531299 0.320908
682 3 0.599331 0.644123 0.311076
100 1 0.815442 0.535454 0.269013
360 1 0.711747 0.518943 0.265262
409 1 0.74626 0.631306 0.181382
410 1 0.768551 0.519287 0.197162
452 2 0.828196 0.656106 0.202303
453 2 0.670018 0.665544 0.175034
695 2 0.759997 0.599757 0.257196
375 1 0.907422 0.524569 0.272967
376 2 0.86603 0.604783 0.281772
384 2 0.871535 0.557546 0.197686
415 1 0.911627 0.64447 0.216163
418 2 0.965698 0.582291 0.241779
630 2 0.988217 0.520727 0.315473
654 1 0.972848 0.659701 0.285919
211 2 0.0726872 0.757676 0.169287
382 2 0.0875895 0.670264 0.19688
426 2 0.0711489 0.833002 0.264493
472 2 0.129973 0.757948 0.23904
660 3 0.0306929 0.731927 0.262737
668 1 0.113889 0.682274 0.285841
721 1 0.099441 0.768996 0.325019
140 2 0.332479 0.813594 0.211307
183 2 0.255073 0.751752 0.179413
185 2 0.327406 0.816275 0.312535
195 2 0.18586 0.815196 0.170394
429 2 0.244144 0.828712 0.244739
430 2 0.281632 0.739205 0.272667
667 1 0.197867 0.693591 0.279104
680 2 0.192541 0.776009 0.303887
703 1 0.172876 0.702894 0.1945
179 1 0.433304 0.670123 0.219138
186 2 0.378088 0.735729 0.191922
435 1 0.452667 0.701289 0.298681
444 2 0.468908 0.754078 0.219535
481 2 0.400156 0.765669 0.289846
677 1 0.365588 0.692949 0.27438
679 2 0.491258 0.786178 0.323569
149 2 0.520934 0.668667 0.234682
217 1 0.597854 0.797302 0.219993
412 2 0.554018 0.745383 0.272003
441 1 0.547345 0.73863 0.176876
447 2 0.644134 0.767286 0.289226
476 1 0.517189 0.821473 0.2375
1424 1 0.609511 0.699047 0.224614
243 2 0.776528 0.818652 0.207592
276 2 0.738183 0.779605 0.281492
401 1 0.672606 0.75192 0.205231
413 1 0.799619 0.70083 0.27339
442 1 0.820604 0.819831 0.282228
446 2 0.753662 0.716015 0.201034
448 3 0.697966 0.680863 0.277169
203 2 0.852906 0.757779 0.233042
383 2 0.940824 0.726215 0.227177
414 1 0.882949 0.686516 0.283184
463 2 0.995949 0.808734 0.209628
666 2 0.944778 0.735836 0.321833
700 1 0.98331 0.817668 0.304769
164 3 0.051317 0.990784 0.241407
167 2 0.103938 0.853471 0.174111
247 1 0.0491628 0.9191 0.176802
421 2 0.0737571 0.923208 0.323447
492 1 0.158071 0.842905 0.251156
664 2 0.00218231 0.898319 0.255664
756 2 0.134021 0.928433 0.244757
262 2 0.273032 0.922382 0.212082
427 2 0.217133 0.870529 0.320148
464 1 0.190524 0.902735 0.179741
468 2 0.218137 0.960977 0.287606
473 2 0.22158 0.994579 0.179862
512 2 0.30033 0.904442 0.305774
708 1 0.312891 0.983767 0.33096
226 2 0.419842 0.93633 0.19026
434 1 0.345121 0.893783 0.170667
470 1 0.356404 0.952357 0.253713
474 3 0.408875 0.859062 0.253886
484 2 0.487881 0.881264 0.313258
740 2 0.443224 0.955073 0.284929
23 2 0.637532 0.991772 0.195682
275 1 0.595506 0.885839 0.215351
485 2 0.511566 0.908602 0.230491
528 2 0.601266 0.943614 0.282398
730 2 0.528229 0.997909 0.282795
731 3 0.581172 0.847392 0.310624
1280 1 0.550885 0.974337 0.201506
233 2 0.677071 0.838124 0.21912
234 1 0.676484 0.855442 0.309491
277 2 0.742229 0.906312 0.177028
487 1 0.751591 0.87258 0.270934
491 1 0.758509 0.973869 0.242473
526 2 0.753141 0.998468 0.332323
741 2 0.685221 0.925764 0.252102
1004 2 0.826556 0.91178 0.229704
204 2 0.976635 0.969536 0.177627
288 1 0.836913 0.892814 0.314614
291 2 0.857924 0.974162 0.32989
420 2 0.917682 0.94858 0.252414
456 3 0.908295 0.841727 0.252047
493 1 0.974649 0.884359 0.173997
494 1 0.895795 0.901854 0.177248
709 1 0.99167 0.953961 0.321613
8 2 0.140194 0.0829205 0.338405
254 1 0.0969325 0.0308474 0.412793
302 2 0.132511 0.0771742 0.476041
465 1 0.0628139 0.022844 0.33362
501 3 0.0652654 0.1191 0.385682
534 3 0.0284651 0.0802448 0.480108
814 2 0.106998 0.164834 0.477145
255 1 0.322234 0.148526 0.448195
258 2 0.260118 0.107151 0.412332
498 2 0.194282 0.0382437 0.415276
502 1 0.320637 0.0571206 0.478243
503 1 0.287893 0.0215019 0.407375
548 2 0.218581 0.164869 0.352031
592 1 0.167731 0.123846 0.415725
257 2 0.470819 0.143112 0.369065
271 3 0.485263 0.120646 0.468352
300 2 0.339087 0.0648903 0.342846
357 2 0.333666 0.153174 0.347
509 1 0.386557 0.135295 0.497377
511 1 0.436407 0.0504611 0.358173
975 2 0.386341 0.0899449 0.42243
983 2 0.457956 0.0261599 0.441397
315 2 0.657467 0.11207 0.383397
515 1 0.59723 0.0112198 0.342411
519 2 0.558992 0.0413719 0.456464
522 1 0.664939 0.137189 0.479378
739 2 0.518853 0.016415 0.373496
784 2 0.664062 0.0429824 0.459974
825 1 0.582759 0.124296 0.469429
991 2 0.556439 0.102836 0.385097
331 1 0.819673 0.0540755 0.357308
527 2 0.758153 0.123935 0.48164
533 2 0.746212 0.0670636 0.401126
713 2 0.782067 0.135999 0.343914
733 1 0.675444 0.020577 0.379546
747 2 0.754841 0.0285977 0.49099
326 2 0.870404 0.130203 0.375608
500 2 0.97651 0.120559 0.336819
578 2 0.953983 0.119076 0.427107
751 1 0.994673 0.0508532 0.387365
794 2 0.943874 0.028754 0.457383
837 2 0.905174 0.0426447 0.374916
1256 2 0.844014 0.0614085 0.453593
292 2 0.137787 0.204183 0.393718
495 1 0.0201966 0.181765 0.454765
530 1 0.140539 0.264104 0.461105
541 2 0.0412952 0.21331 0.371897
620 2 0.0317906 0.278188 0.430381
800 2 0.112418 0.296926 0.382509
557 2 0.288447 0.211217 0.395134
581 3 0.219653 0.190345 0.465918
589 3 0.212752 0.273177 0.390018
593 2 0.28643 0.282191 0.460451
600 1 0.317258 0.291442 0.372939
306 2 0.407466 0.218306 0.342723
507 2 0.358755 0.231185 0.45617
550 1 0.405944 0.172518 0.417776
555 2 0.440271 0.275561 0.420636
558 2 0.494023 0.266278 0.347273
563 1 0.41162 0.306835 0.337904
601 1 0.371563 0.318736 0.436753
520 1 0.663386 0.247623 0.402273
560 1 0.571676 0.264376 0.393151
561 1 0.52197 0.287607 0.464365
562 1 0.500282 0.211878 0.413642
775 2 0.605269 0.18502 0.414623
863 2 0.618031 0.304149 0.462602
985 2 0.549799 0.207725 0.485882
323 1 0.692496 0.18903 0.339439
367 2 0.705405 0.317105 0.365591
518 2 0.824933 0.200161 0.415297
566 1 0.706761 0.305784 0.451182
568 2 0.667039 0.230374 0.490002
569 2 0.723761 0.181399 0.420804
574 1 0.756799 0.253162 0.391894
579 2 0.776171 0.258407 0.482711
580 2 0.788641 0.329717 0.423059
293 2 0.979748 0.294427 0.341766
496 1 0.951614 0.30513 0.422603
573 3 0.939131 0.208064 0.378064
613 2 0.873422 0.283234 0.370439
791 1 0.90071 0.178194 0.456697
793 1 0.872814 0.259567 0.459601
836 2 0.960713 0.239679 0.48193
344 2 0.00599326 0.373838 0.393981
536 1 0.160572 0.348581 0.438012
584 1 0.0898208 0.439147 0.46812
587 2 0.153243 0.491471 0.445313
588 3 0.146089 0.481785 0.335765
594 2 0.104337 0.407797 0.387116
762 2 0.0784699 0.351943 0.458254
833 1 0.00878386 0.450206 0.444667
390 2 0.204556 0.426337 0.403555
591 1 0.249445 0.355389 0.419952
595 2 0.181349 0.357365 0.351425
596 2 0.329824 0.377124 0.394846
627 1 0.248156 0.490719 0.437612
634 1 0.288363 0.439477 0.358773
849 1 0.310453 0.356823 0.499247
353 3 0.377363 0.468437 0.339317
552 1 0.499992 0.352987 0.345285
597 3 0.478215 0.3741 0.440623
602 2 0.420325 0.382698 0.365014
605 2 0.429042 0.462274 0.420009
608 2 0.388317 0.396946 0.481597
628 2 0.335736 0.465496 0.433227
865 2 0.491667 0.461049 0.481922
358 3 0.581651 0.432218 0.452245
559 1 0.565307 0.348944 0.410153
607 2 0.650594 0.379289 0.404614
642 2 0.51993 0.435561 0.377003
645 2 0.619234 0.484347 0.385721
371 2 0.699817 0.458045 0.340866
378 2 0.821604 0.412474 0.394281
603 1 0.676392 0.456054 0.446025
610 1 0.763292 0.478606 0.404859
649 1 0.732423 0.400913 0.405271
830 2 0.732575 0.378649 0.490357
914 2 0.743072 0.498917 0.485289
327 2 0.91838 0.36868 0.357889
582 1 0.974337 0.448685 0.364347
614 2 0.877411 0.344612 0.439799
615 3 0.846122 0.498414 0.442327
619 2 0.919406 0.430582 0.430221
799 2 0.978095 0.385484 0.49133
339 3 0.0625208 0.509985 0.385395
460 2 0.136105 0.607912 0.336314
585 1 0.0669671 0.604889 0.498031
618 2 0.035708 0.60637 0.340155
661 1 0.0114769 0.595985 0.424329
670 1 0.0962894 0.59428 0.416561
888 2 0.144652 0.573654 0.486336
893 2 0.0576039 0.519201 0.484142
386 1 0.179465 0.555023 0.394413
626 2 0.186179 0.639398 0.41653
629 2 0.237369 0.57255 0.458863
631 2 0.248425 0.522224 0.339592
639 2 0.308767 0.54256 0.402472
669 1 0.254534 0.601888 0.372618
887 1 0.239663 0.664127 0.482497
937 3 0.321377 0.640173 0.434283
403 2 0.476637 0.517975 0.351514
632 3 0.457672 0.554486 0.451697
633 1 0.393615 0.563533 0.387989
636 2 0.481637 0.63771 0.49938
638 2 0.37851 0.651222 0.353493
897 1 0.423845 0.64083 0.424609
899 2 0.359595 0.548519 0.475006
604 1 0.542594 0.518893 0.417489
641 1 0.64684 0.615115 0.493741
644 2 0.52761 0.598908 0.386254
651 2 0.621806 0.578509 0.395591
691 2 0.594222 0.66348 0.414172
873 2 0.616836 0.524334 0.480306
905 2 0.558632 0.594161 0.472653
368 2 0.700384 0.53703 0.4092
407 3 0.790751 0.596518 0.423203
411 2 0.762797 0.546518 0.339553
643 2 0.691995 0.608996 0.342171
657 2 0.780091 0.648066 0.336251
701 1 0.69848 0.623546 0.429315
416 2 0.967908 0.666188 0.391903
625 1 0.948124 0.595137 0.333974
652 3 0.873666 0.638449 0.379405
874 3 0.947028 0.528696 0.41538
923 2 0.862122 0.543584 0.352773
954 2 0.910608 0.636449 0.47289
462 2 0.0467551 0.829082 0.360459
662 2 0.0516833 0.702414 0.359691
672 2 0.127928 0.792173 0.415089
921 2 0.100013 0.682724 0.446086
928 2 0.00869052 0.666959 0.481919
929 2 0.150338 0.709634 0.362912
932 1 0.0444991 0.752755 0.433204
933 2 0.0713282 0.816643 0.487652
424 1 0.329026 0.729906 0.3491
438 2 0.251621 0.782136 0.370609
475 1 0.266656 0.806748 0.456494
635 2 0.201785 0.735432 0.444968
663 2 0.189258 0.832704 0.489594
676 1 0.239215 0.694347 0.357701
727 1 0.286924 0.729773 0.423484
479 2 0.416959 0.733772 0.384409
505 2 0.345896 0.797301 0.407295
675 1 0.445463 0.713704 0.471242
683 1 0.499042 0.765791 0.408848
939 2 0.36284 0.728493 0.469999
974 1 0.426771 0.803141 0.443392
640 1 0.522276 0.692061 0.449194
646 2 0.575785 0.744291 0.36517
686 2 0.579477 0.75203 0.475446
692 2 0.505525 0.68473 0.365316
694 1 0.642271 0.79185 0.376937
732 1 0.572726 0.81477 0.416993
735 1 0.654346 0.818598 0.455344
949 3 0.664231 0.707937 0.46012
979 1 0.506372 0.795137 0.48879
449 1 0.805949 0.819767 0.364132
488 2 0.719068 0.815783 0.369875
647 1 0.820897 0.755897 0.422987
653 1 0.832045 0.675226 0.468513
685 1 0.759647 0.734793 0.349438
689 2 0.733948 0.777599 0.456896
697 2 0.761834 0.693477 0.423258
698 2 0.672585 0.707822 0.36706
744 3 0.818236 0.824067 0.498919
451 2 0.843242 0.737228 0.338429
469 2 0.892007 0.814746 0.347942
655 1 0.902719 0.730487 0.402621
659 2 0.97454 0.784281 0.39608
705 2 0.877892 0.742895 0.491019
710 1 0.89925 0.809913 0.441078
881 1 0.959226 0.734897 0.467492
957 2 0.977071 0.827782 0.485597
15 2 0.143412 0.987415 0.34351
716 2 0.139634 0.977941 0.467874
723 2 0.134309 0.84661 0.335764
748 2 0.0273984 0.974365 0.396744
755 2 0.0390989 0.88983 0.433411
963 1 0.0526185 0.963211 0.478888
970 2 0.132931 0.909814 0.400476
994 1 0.117736 0.890594 0.482763
544 1 0.271065 0.892132 0.47173
671 1 0.197784 0.84903 0.404822
717 3 0.229067 0.944414 0.392384
719 1 0.283615 0.859932 0.387386
720 1 0.239725 0.993273 0.477602
725 1 0.324086 0.929842 0.39555
977 2 0.321898 0.969844 0.474537
553 2 0.375551 0.997688 0.395565
718 3 0.456104 0.938419 0.388727
726 1 0.379403 0.916928 0.334942
729 2 0.381996 0.886123 0.44337
738 2 0.416407 0.841072 0.361731
942 2 0.476336 0.874331 0.470302
482 1 0.505517 0.854256 0.390583
523 1 0.555151 0.933903 0.364905
687 2 0.521519 0.959958 0.463331
696 2 0.639058 0.898925 0.496687
734 1 0.564173 0.887107 0.45166
736 2 0.637347 0.878651 0.392611
993 2 0.613823 0.970317 0.419278
459 1 0.671132 0.942158 0.341688
524 2 0.800637 0.92392 0.493888
693 1 0.758628 0.861576 0.429948
737 2 0.756018 0.90542 0.354938
750 2 0.805355 0.983716 0.412452
987 3 0.714053 0.947248 0.439549
499 2 0.930995 0.89706 0.333519
572 3 0.852978 0.894333 0.40796
746 1 0.953326 0.86965 0.412305
754 1 0.933389 0.96071 0.395617
792 1 0.875805 0.974383 0.472333
955 1 0.900307 0.882696 0.496104
1003 2 0.966299 0.933736 0.475568
742 3 0.00574047 0.0829159 0.6009
768 1 0.1665 0.136446 0.532708
798 2 0.0964941 0.0984616 0.566827
965 2 0.0734201 0.0162064 0.54144
971 3 0.161396 0.10346 0.644808
1076 1 0.0382529 0.161721 0.541628
1492 3 0.10795 0.0115996 0.635187
249 1 0.33118 0.0932075 0.554529
252 2 0.239598 0.0893035 0.505333
508 3 0.177695 0.0234454 0.551487
545 2 0.249897 0.0806203 0.599104
767 1 0.276186 0.0137693 0.551773
964 1 0.324167 0.0526832 0.632638
1223 1 0.303203 0.144389 0.62387
715 2 0.409429 0.0546419 0.511692
764 1 0.374976 0.113454 0.657322
774 1 0.461092 0.143509 0.560279
779 2 0.418255 0.0722177 0.599183
782 2 0.396453 0.00386805 0.661768
808 1 0.498333 0.0968699 0.620386
1019 2 0.491029 0.0167339 0.655835
1058 2 0.451813 0.159648 0.648285
773 3 0.50713 0.0345332 0.544746
812 2 0.546819 0.129835 0.554661
980 1 0.642945 0.0181247 0.593855
989 1 0.637382 0.116567 0.590278
996 2 0.607997 0.0660846 0.530082
1027 2 0.57765 0.0666344 0.634298
521 1 0.697401 0.0792478 0.541442
745 1 0.821367 0.0646241 0.626228
1002 2 0.823385 0.00182345 0.546084
1073 2 0.747649 0.119086 0.616141
1244 1 0.798369 0.0867247 0.549345
1282 1 0.746304 0.0245842 0.591912
497 2 0.911497 0.0741806 0.652371
504 1 0.986465 0.00879234 0.528801
516 2 0.846584 0.141996 0.506291
758 3 0.901273 0.0607498 0.54785
838 2 0.95539 0.144953 0.51838
1037 2 0.867865 0.143693 0.599564
1253 1 0.951053 0.00429656 0.614489
540 2 0.037795 0.215743 0.611997
576 2 0.069291 0.240987 0.515216
797 1 0.112909 0.180238 0.584746
805 1 0.0497345 0.293389 0.583625
848 1 0.122488 0.307119 0.532852
1007 1 0.117188 0.254852 0.632784
1086 1 0.0127461 0.309339 0.510898
547 2 0.232899 0.169193 0.576082
549 1 0.258717 0.243821 0.551308
551 1 0.311324 0.184214 0.524376
761 1 0.186049 0.212681 0.638119
772 2 0.169626 0.236771 0.547862
803 3 0.217239 0.324898 0.521625
804 1 0.187354 0.299288 0.612654
858 2 0.277495 0.231325 0.640473
1100 2 0.278914 0.321122 0.593763
546 2 0.37841 0.167575 0.578978
556 2 0.351061 0.267254 0.544774
802 3 0.432893 0.250623 0.614928
810 1 0.42406 0.313935 0.502493
811 2 0.354922 0.296265 0.6387
816 3 0.443159 0.221037 0.503762
817 1 0.490212 0.304595 0.555124
514 1 0.577862 0.273984 0.540262
565 2 0.6398 0.267244 0.606078
780 3 0.572634 0.169201 0.656845
781 2 0.516467 0.214899 0.578718
783 2 0.612347 0.193596 0.558558
820 2 0.538929 0.299343 0.620432
1024 1 0.663991 0.17566 0.641089
334 2 0.773333 0.330497 0.561605
567 1 0.717944 0.256969 0.556788
788 2 0.703256 0.168704 0.550374
818 1 0.670483 0.319159 0.534659
831 1 0.734562 0.210269 0.624192
867 3 0.803487 0.211674 0.566223
869 2 0.755823 0.293705 0.645299
760 1 0.898324 0.216385 0.542471
823 3 0.88734 0.255106 0.63811
824 1 0.848389 0.291699 0.538206
876 1 0.925864 0.316302 0.506153
1010 2 0.95333 0.181051 0.601778
1082 2 0.965978 0.278921 0.579521
1124 1 0.994522 0.316068 0.657711
537 2 0.0692737 0.376501 0.544178
590 1 0.152642 0.371496 0.580363
801 2 0.026697 0.488705 0.633025
840 1 0.0289353 0.456872 0.541004
842 1 0.0794249 0.421338 0.615096
1078 2 0.0912725 0.339736 0.640765
1135 2 0.119568 0.470492 0.548221
845 1 0.259342 0.402546 0.559492
850 2 0.178438 0.41186 0.502043
851 2 0.278793 0.456543 0.629759
852 1 0.312795 0.439595 0.511199
892 2 0.193628 0.440316 0.600443
898 2 0.236266 0.495584 0.528731
1091 1 0.324351 0.379508 0.645765
1130 1 0.241311 0.377503 0.646402
809 1 0.360218 0.357181 0.565412
854 1 0.450415 0.384449 0.541873
855 2 0.426995 0.353318 0.620013
857 2 0.461338 0.464996 0.578009
859 2 0.375276 0.433534 0.599576
896 1 0.405662 0.478928 0.508341
564 2 0.540952 0.357167 0.512836
609 2 0.644319 0.39318 0.511806
821 2 0.662719 0.344745 0.651349
856 2 0.599687 0.358693 0.585386
860 1 0.614895 0.437561 0.621514
862 1 0.510574 0.386274 0.602591
864 2 0.555073 0.440392 0.551314
907 2 0.512668 0.460776 0.656381
912 1 0.645069 0.471272 0.544924
835 1 0.833089 0.335819 0.637208
861 1 0.691283 0.400906 0.582229
866 3 0.774587 0.439361 0.557414
1074 2 0.752897 0.397671 0.647992
1114 1 0.706908 0.4753 0.625684
539 2 0.922023 0.476489 0.60071
796 3 0.983951 0.393996 0.59522
827 2 0.833702 0.387099 0.502953
868 1 0.870584 0.453209 0.537544
872 2 0.84785 0.422364 0.636485
878 2 0.88941 0.359232 0.576677
885 2 0.94728 0.476933 0.509903
622 1 0.157375 0.658647 0.50648
844 2 0.0800546 0.562699 0.658247
846 1 0.0677873 0.535859 0.569126
880 3 0.0198982 0.620416 0.59636
891 2 0.11551 0.608015 0.57351
673 2 0.208657 0.603304 0.55491
879 2 0.181203 0.632611 0.659678
889 2 0.295139 0.60658 0.526558
894 3 0.329378 0.513784 0.565804
1136 3 0.167584 0.534968 0.618369
1139 1 0.257146 0.550782 0.60395
1181 1 0.267884 0.625609 0.632479
853 1 0.398998 0.512214 0.628749
895 3 0.354685 0.600218 0.60533
901 2 0.424596 0.548427 0.549526
904 1 0.480048 0.544721 0.617446